LAMMPS data file via write_data, version 29 Aug 2024, timestep = 7500000, units = real

864 atoms
2 atom types
576 bonds
1 bond types
288 angles
1 angle types

0.03551236866727514 18.172060031328037 xlo xhi
0.046086762958747585 23.583091037045087 ylo yhi
0.04332500682643037 22.16987079317009 zlo zhi

Masses

1 1.00794
2 15.9994

Pair Coeffs # lj/cut/tip4p/long

1 0 0
2 0.21084 3.1668

Bond Coeffs # harmonic

1 450 0.9572

Angle Coeffs # harmonic

1 55 104.52

Atoms # full

686 1 1 0.5897 6.756555017290529 2.39257681051746 1.5360234588229353 1 1 0
685 1 2 -1.1794 6.844421029964674 2.576689170632267 2.4712577656202455 1 1 0
123 1 1 0.5897 1.0107686420297202 2.5951561993381462 3.3191318069290086 1 0 0
121 1 2 -1.1794 0.2303795021489906 2.87275852368298 3.798940303612517 1 0 0
687 1 1 0.5897 7.762418447403614 2.824325981592411 2.58190492082462 1 1 0
296 1 1 0.5897 5.464574077954788 3.4837077147946025 3.019391018042997 0 1 1
297 1 1 0.5897 4.760050652411663 3.8690933198953785 4.302809412825795 0 1 1
507 1 1 0.5897 3.2617431045112393 2.7243144551991443 2.845446610291521 1 1 0
506 1 1 0.5897 2.470753920978818 2.3997491039729155 1.5960452903410827 1 1 0
505 1 2 -1.1794 2.5257632833824473 2.1995238054180066 2.530479498683965 1 1 0
347 1 1 0.5897 5.014171762632051 5.7583119489259404 2.752077158965392 1 0 0
295 1 2 -1.1794 4.7309580686624 3.999014254162775 3.354884168884173 0 1 1
428 1 1 0.5897 6.972172067922355 0.8933961667237827 2.9804588235161 0 0 0
681 1 1 0.5897 2.425152948674572 0.37979203891811486 3.3846045236557663 1 1 1
225 1 1 0.5897 0.8648381866271769 5.663086565019113 2.9963862343231087 -2 0 1
35 1 1 0.5897 4.140015241642713 3.794557231220831 10.891866745660524 1 0 1
138 1 1 0.5897 7.015366296501058 2.8833398536420076 8.703713695045185 0 0 0
232 1 2 -1.1794 5.433086946412804 3.8486521744295916 6.248306862954478 0 1 -2
544 1 2 -1.1794 3.1101637292899924 2.3094085137347014 10.260042268034613 1 0 0
536 1 1 0.5897 1.4768276154833246 3.4667578271286565 6.910020223246971 1 1 0
6 1 1 0.5897 7.85473938723213 3.274756592528251 10.79662346737453 0 0 0
234 1 1 0.5897 6.159490133339555 3.433345770761128 6.713221407571452 0 1 -2
233 1 1 0.5897 5.317966214274119 4.691592232236138 6.687039331401745 0 1 -2
128 1 1 0.5897 3.8398347958574868 3.1513238764196223 7.143403614850773 1 1 1
546 1 1 0.5897 3.039454499868811 2.4626090962876965 9.317801682897692 1 0 0
5 1 1 0.5897 6.997647651317548 2.0291056487605488 10.720932065266906 0 0 0
137 1 1 0.5897 7.112339061891642 1.5854430129803136 7.9303737557401215 0 0 0
535 1 2 -1.1794 0.5518519884531511 3.6171642516275857 6.71486526177552 1 1 0
127 1 2 -1.1794 2.980004623937537 2.790105124772779 7.359045530553145 1 1 1
136 1 2 -1.1794 7.2260289599471585 2.5314658748145917 7.838792314942156 0 0 0
684 1 1 0.5897 2.9022043461880824 0.5564642147882034 10.765437513171797 0 1 0
129 1 1 0.5897 2.981930586274261 1.9162641883357878 6.968296114476818 1 1 1
359 1 1 0.5897 8.953901583342084 3.163026947891762 6.729896062219253 1 0 2
4 1 2 -1.1794 6.988489077153674 2.967013241835015 10.529829237519747 0 0 0
36 1 1 0.5897 5.623615162795469 4.08329599919707 10.978995344153489 1 0 1
491 1 1 0.5897 1.1303820646356266 4.632653562904505 10.902546295558283 0 1 0
537 1 1 0.5897 0.4794234766681021 3.474611939049328 5.771094761748529 1 1 0
767 1 1 0.5897 0.38569319311821393 5.69472532278791 7.574788824560858 0 1 0
545 1 1 0.5897 2.424470841164046 2.85582520322693 10.644154207227723 1 0 0
490 1 2 -1.1794 0.9965366902107603 3.704605425175406 11.095154130400633 0 1 0
492 1 1 0.5897 0.9532186517146303 3.6615689443490407 12.050433369031287 0 1 0
813 1 1 0.5897 2.854192374950392 2.3688656269626454 14.618803680558598 -2 1 0
178 1 2 -1.1794 7.794310330421102 1.626021779546239 15.07557652181853 0 1 0
181 1 2 -1.1794 4.202165214150298 5.259381941053249 14.02059983841998 0 -1 -1
179 1 1 0.5897 6.954086387773823 2.081905398999476 15.125389961273463 0 1 0
811 1 2 -1.1794 2.4531593652121924 3.1864297722106487 14.913809649855724 -2 1 0
554 1 1 0.5897 0.8235359333198107 3.550495536292608 14.09703735790155 -2 1 0
182 1 1 0.5897 4.534407792203597 5.297520940378183 13.123689445956453 1 -1 -1
152 1 1 0.5897 7.598563783848378 0.2521699089730943 14.05267336813496 -1 -1 -1
812 1 1 0.5897 2.9638029487481115 3.872847110473403 14.48443795109465 -2 1 0
445 1 2 -1.1794 3.277756302734223 0.6505675230719239 14.039541013416343 1 1 0
180 1 1 0.5897 8.345428356852327 2.1964053403512693 14.539661234304278 0 1 0
720 1 1 0.5897 5.222476104549778 4.051091275471277 15.212926638353204 0 0 0
718 1 2 -1.1794 5.681418437548086 3.5384089428951038 15.878360786296163 0 0 0
447 1 1 0.5897 2.567765134242574 0.16268303394941785 14.456858338848843 2 1 0
446 1 1 0.5897 4.030092877556454 0.060038515133876785 14.078648412542014 1 1 0
719 1 1 0.5897 5.743960059752672 4.12488114124502 16.632296322845875 0 0 0
34 1 2 -1.1794 4.767421073621541 4.44402270738298 11.209419302115457 1 0 1
683 1 1 0.5897 2.9625284661055233 0.05729577029602591 12.193437332113875 0 1 0
534 1 1 0.5897 6.673758114194129 0.5300865523317184 21.10265371311943 0 0 1
90 1 1 0.5897 2.682527624115579 4.4262397642185825 18.752884426048148 0 1 -2
397 1 2 -1.1794 4.74778378005594 4.302667070707137 21.19136344582855 -3 1 -2
88 1 2 -1.1794 3.1065653105640014 5.151869215683742 19.21106757410351 0 1 -2
498 1 1 0.5897 6.173273973664219 0.32241549442393586 17.92813717928796 1 1 -1
548 1 1 0.5897 0.9328703662173037 3.0935718964766785 17.49818384009177 0 1 0
470 1 1 0.5897 1.5016221392302447 3.4154216006833455 21.9247255175215 0 0 -1
399 1 1 0.5897 4.176211709428356 3.847046583237748 21.80942085935944 -3 1 -2
547 1 2 -1.1794 1.7918991053180022 3.498525758286187 17.6180159095277 0 1 0
851 1 1 0.5897 7.2258781828750696 5.634442870592401 17.996354958694305 2 0 -2
43 1 2 -1.1794 8.444519178318014 2.336102393789927 17.61904179385502 -1 1 -1
289 1 2 -1.1794 8.874262404465712 2.761820376313723 20.231294961040298 -1 0 0
568 1 2 -1.1794 4.3762145708593785 1.5170822566365834 17.417751112707364 -2 0 -1
110 1 1 0.5897 7.365555835867185 2.408089601833851 21.1073351899337 2 1 -1
109 1 2 -1.1794 6.672970648037852 2.353937410000531 21.76587597732663 2 1 -1
850 1 2 -1.1794 6.350054779090349 5.525782815984638 17.6256590091605 2 0 -2
58 1 2 -1.1794 2.119334739989687 0.6552172412713961 20.492260322662602 -2 -1 -2
570 1 1 0.5897 3.5194349715535447 1.8348972203278526 17.702726190745338 -2 0 -1
45 1 1 0.5897 8.231393886056308 1.9502291793336481 16.76936420452553 -1 1 -1
89 1 1 0.5897 3.576625755307592 4.737028427191895 19.9344124737543 0 1 -2
398 1 1 0.5897 4.66894316014243 5.2268225834208915 21.428015181295706 -3 1 -2
111 1 1 0.5897 5.937084974419937 2.8290415508820557 21.379861072650712 2 1 -1
59 1 1 0.5897 2.1290148802751196 0.4011149305746261 19.569428240346532 -2 -1 -2
469 1 2 -1.1794 2.3360529183007546 2.9532649166148364 22.004819856150164 0 0 -1
290 1 1 0.5897 8.579206345853839 2.452800119060161 19.37471353593054 -1 0 0
60 1 1 0.5897 1.3235810378436472 0.25516809395156104 20.843007873999262 -2 -1 -2
613 1 2 -1.1794 8.871865337195999 5.676439778569548 19.2429506021792 1 1 0
615 1 1 0.5897 8.545026592021442 4.79535172927799 19.424985152993173 1 1 0
471 1 1 0.5897 2.216391097799227 2.151819273102611 21.495256878846533 0 0 -1
569 1 1 0.5897 4.727764781897322 2.2255156249080805 16.87847585575777 -2 0 -1
549 1 1 0.5897 2.1824367268818126 3.495984180575046 16.74408231899819 0 1 0
852 1 1 0.5897 5.75934662712103 5.844437022302032 18.308161678574493 2 0 -2
346 1 2 -1.1794 4.886691547600535 6.6610946699168325 2.460514064363151 1 0 0
250 1 2 -1.1794 6.743176795378763 10.778862952927604 0.21148338256541563 -1 0 1
201 1 1 0.5897 6.70670522022669 11.30908232816218 3.6185126589919534 -2 1 0
526 1 2 -1.1794 2.5260118143401686 6.960115287343703 3.5978125300533197 -1 0 0
790 1 2 -1.1794 1.267216349191893 8.316050750359304 1.6746415213908705 -1 -1 0
348 1 1 0.5897 4.795824506800541 6.5957200345116025 1.5098572512907094 1 0 0
616 1 2 -1.1794 7.1551723105670275 7.668151720790104 3.5915393821474435 0 1 0
308 1 1 0.5897 1.5134480739196288 11.242076450919697 3.375473054497644 0 1 -1
792 1 1 0.5897 1.6685078061837826 7.982037284820313 2.4769405863699054 -1 -1 0
618 1 1 0.5897 7.13789412719617 8.624605154931237 3.557155837503479 0 1 0
84 1 1 0.5897 2.5604859176385655 9.013649255735611 0.5686454817738289 0 -1 0
309 1 1 0.5897 0.8855842321874379 10.009257563038817 2.7606720973621064 0 1 -1
199 1 2 -1.1794 7.280380822163231 10.640673015459928 3.2438123741322458 -2 1 0
252 1 1 0.5897 6.842764258392243 10.967478514967627 1.1446465307508722 -1 0 1
200 1 1 0.5897 8.165166219706023 10.935277671099437 3.459780285736081 -2 1 0
528 1 1 0.5897 3.349362699645787 6.716604545372289 3.1746543689228224 -1 0 0
527 1 1 0.5897 2.7701856440039236 7.157888545831717 4.501994715457786 -1 0 0
617 1 1 0.5897 6.325076902131103 7.398824090720186 3.1982496332387136 0 1 0
539 1 1 0.5897 8.471874157947138 6.577749402955914 2.6665045840786545 1 0 1
307 1 2 -1.1794 0.667030388598056 10.829921222972649 3.202293945327743 0 1 -1
474 1 1 0.5897 7.360566182983485 7.92840197563088 5.183857198087178 -1 1 1
791 1 1 0.5897 0.8212266443750513 7.558440550402522 1.295960003526763 -1 -1 0
163 1 2 -1.1794 0.7839057591402663 11.398048734942718 6.568549212242782 0 -1 0
259 1 2 -1.1794 2.97802699107811 9.900325424913351 7.091976001141597 0 0 0
715 1 2 -1.1794 2.5413248133473436 10.414751063498803 9.74664938952622 1 0 1
796 1 2 -1.1794 4.640537652979583 11.565491938565614 10.90169790819298 0 0 0
354 1 1 0.5897 6.91240842725305 10.488043548738023 8.435971491711426 5 0 0
353 1 1 0.5897 7.199345641696159 9.683854503194114 7.185784967910677 5 0 0
766 1 2 -1.1794 0.451017302477514 6.628004083554315 7.777279479061615 0 1 0
677 1 1 0.5897 6.141272631786099 7.338784137259799 7.5770883895179075 0 0 0
194 1 1 0.5897 4.792314555540077 6.046692065663746 10.84074213847218 1 0 0
268 1 2 -1.1794 0.733691668858856 6.57411542592532 10.562576037416472 1 1 0
716 1 1 0.5897 2.820392329146116 10.06995775776687 8.898402332084599 1 0 1
699 1 1 0.5897 1.033010530298767 11.59039121013324 9.891908585755733 1 -1 -1
717 1 1 0.5897 2.42934644736181 9.638906019502196 10.296011035750087 1 0 1
260 1 1 0.5897 3.6722212513377146 10.480757407201999 6.779766579924284 0 0 0
332 1 1 0.5897 8.682645126564585 6.724552003948446 10.54071756631457 0 0 0
261 1 1 0.5897 2.1818447879470972 10.42923735448786 7.0407815838164876 0 0 0
678 1 1 0.5897 4.7478328650668296 6.881372654763269 7.201445232054573 0 0 0
676 1 2 -1.1794 5.411594158952219 6.802078524954201 7.88658397917038 0 0 0
338 1 1 0.5897 2.951329763369132 8.155494200083393 6.507336184899862 1 0 0
337 1 2 -1.1794 2.9294198333493937 7.205986777974594 6.388017800825767 1 0 0
472 1 2 -1.1794 7.549709369923495 8.170218183049323 6.090517429424955 -1 1 1
738 1 1 0.5897 6.880782724974181 9.334170618313752 10.695205971311717 -1 0 0
352 1 2 -1.1794 6.865466224327764 10.531038879058611 7.480872106977761 5 0 0
158 1 1 0.5897 8.847070662433813 11.248398168435243 6.840763421334821 0 0 1
736 1 2 -1.1794 6.772625088813895 10.13632837242824 10.184202611849525 -1 0 0
339 1 1 0.5897 2.0626010719185452 6.944956677988551 6.6991009573139095 1 0 0
586 1 2 -1.1794 4.918516656280751 11.756453948264202 6.260168506764155 2 1 0
473 1 1 0.5897 8.279223748905615 7.604094689405549 6.342705214420821 -1 1 1
737 1 1 0.5897 7.554133172157259 10.653075140716503 10.380375570870424 -1 0 0
588 1 1 0.5897 5.631087073261743 11.350215993827359 6.75362876397336 2 1 0
195 1 1 0.5897 5.086808494912802 7.017810300262466 9.717280851215717 1 0 0
270 1 1 0.5897 0.7250910690764814 6.568516345293806 9.605405351156199 1 1 0
193 1 2 -1.1794 4.88335744487164 6.980663989119627 10.651883822518714 1 0 0
797 1 1 0.5897 3.9545757614366677 11.053838049760488 10.472809560588196 0 0 0
798 1 1 0.5897 5.442436255153326 11.064539896754921 10.752428434853133 0 0 0
165 1 1 0.5897 0.6985534924806613 11.031600366280378 5.68836887389568 0 -1 0
734 1 1 0.5897 4.464663074606254 7.529436022297463 16.244231815776374 -1 0 0
344 1 1 0.5897 6.838455226478292 7.365227761516239 14.61536078455634 1 0 1
183 1 1 0.5897 4.4626483155025145 6.094714183298048 14.40874614670326 0 -1 -1
345 1 1 0.5897 8.125743687049201 8.15865945420012 14.541940706828546 1 0 1
801 1 1 0.5897 0.778010408542562 6.597740461878438 14.88028066417053 1 -1 0
650 1 1 0.5897 1.5793203907842301 8.621974359648197 14.443937561763946 -1 0 -1
733 1 2 -1.1794 4.803109198411899 7.790364550259358 15.387704442899334 -1 0 0
431 1 1 0.5897 6.525109648011878 7.51773976760188 11.334288759621439 1 0 0
651 1 1 0.5897 2.15789253729997 7.830030309380155 13.290636942282424 -1 0 -1
363 1 1 0.5897 8.948092170397091 6.271122976242353 14.797057906691728 -2 0 0
735 1 1 0.5897 4.023883033437571 7.880823169527629 14.839151501121513 -1 0 0
649 1 2 -1.1794 1.9620979463310255 7.7721506637330915 14.225832603512195 -1 0 -1
432 1 1 0.5897 7.715590857234825 7.56025479212466 12.268616329940746 1 0 0
484 1 2 -1.1794 2.536436655896212 8.220675751343569 11.582439193032602 1 0 0
669 1 1 0.5897 0.6300226780084538 11.112687584220717 13.900431651454348 -2 0 0
343 1 2 -1.1794 7.6973701552807405 7.376995530684022 14.192968812547628 1 0 1
667 1 2 -1.1794 1.0866298362513713 11.01504129306382 14.736051518093316 -2 0 0
863 1 1 0.5897 8.761741636566567 11.150715171795397 14.299890154219593 1 1 0
564 1 1 0.5897 8.944022809496264 9.439489211088565 16.069786901181487 1 1 1
430 1 2 -1.1794 7.453436055268483 7.748797979802404 11.367498340359903 1 0 0
17 1 1 0.5897 8.819720599696888 11.427617277693836 11.815546792644296 -1 0 0
486 1 1 0.5897 3.3716249763263217 8.08482854256344 11.134896145047168 1 0 0
668 1 1 0.5897 0.7468374329776984 11.725857725819527 15.279712013995518 -2 0 -1
562 1 2 -1.1794 9.099559285563501 9.545523346407006 15.131258275349735 1 1 1
240 1 1 0.5897 1.2223373722285524 9.696331883776544 16.409733525265743 1 1 0
485 1 1 0.5897 1.9838566391899342 7.498355621156472 11.283798589775198 1 0 0
510 1 1 0.5897 3.927912874956598 10.652647566287616 21.923427637492516 3 1 -1
192 1 1 0.5897 3.5802181738608914 6.750368697212582 18.584890917462552 5 0 -1
449 1 1 0.5897 1.119401643264592 9.29387837784825 19.192294002636075 1 1 -2
83 1 1 0.5897 2.2396930189635476 9.233306300141733 21.232033623272187 0 -1 -1
448 1 2 -1.1794 0.8200331736379405 8.879468505260359 20.001572314070486 1 1 -2
845 1 1 0.5897 6.787337739388851 8.54918741195672 20.413504892628843 2 0 -1
30 1 1 0.5897 8.403899548212207 7.683500545978365 21.852482144655326 0 -1 1
320 1 1 0.5897 4.574525705634274 11.07611732655449 19.020947246038276 -2 1 0
508 1 2 -1.1794 4.182835897038115 11.572510990785657 21.851632385571456 3 1 -1
403 1 2 -1.1794 8.229078112477072 10.014580647289344 17.82664652872871 -2 0 -1
622 1 2 -1.1794 0.7346303012047595 6.281864395260963 19.93445618097833 2 0 -1
844 1 2 -1.1794 6.904051291686029 8.317957371803502 21.335024642982845 2 0 -1
238 1 2 -1.1794 1.0796734825655674 9.098564752957108 17.143611434926285 1 1 0
614 1 1 0.5897 8.889371757538967 6.107247430784697 20.097572866522825 1 1 -1
509 1 1 0.5897 4.25259994387405 11.729422055323143 20.909933564192627 3 1 -1
739 1 2 -1.1794 5.651517726373339 9.56959987376832 18.85632879760852 1 -2 -1
82 1 2 -1.1794 2.968585240907819 9.21092658854068 21.852090749104455 0 -1 -1
405 1 1 0.5897 8.174916148307657 10.89805980337693 18.191068999537677 -2 0 -1
741 1 1 0.5897 6.4930159112892705 9.762108973954511 18.442676613608832 1 -2 -1
740 1 1 0.5897 5.204587190932293 8.99474533750946 18.234972757376504 1 -2 -1
846 1 1 0.5897 6.699661017864687 9.122301170929614 21.81203314690046 2 0 -1
450 1 1 0.5897 0.8477617052106655 7.9409862368973965 19.81513044231597 1 1 -2
575 1 1 0.5897 8.3912048759699 11.497569063388504 21.800819852025988 0 1 0
191 1 1 0.5897 2.880004649292155 7.769505980943298 17.711346028459367 5 0 -1
190 1 2 -1.1794 3.74141048988137 7.395095690429766 17.89595790515248 5 0 -1
825 1 1 0.5897 3.9900068329449283 7.594886931669832 21.444201376481054 0 0 -1
824 1 1 0.5897 5.476544675663737 7.331475846030389 21.557516254465767 0 0 -1
823 1 2 -1.1794 4.623519729629763 6.906338106771294 21.646279237545862 0 0 -1
239 1 1 0.5897 0.2695313033027473 8.638298773207422 16.9242690984631 1 1 0
404 1 1 0.5897 8.809969456427499 9.543666298873735 18.424217596378767 -2 0 -1
28 1 2 -1.1794 9.02033751012638 6.961785433039844 21.976656616393775 0 -1 1
624 1 1 0.5897 0.4878522558720034 5.957234778111269 20.800484200480234 2 0 -1
623 1 1 0.5897 1.6306059913931683 5.969772471165447 19.807512105415675 2 0 -1
251 1 1 0.5897 5.877148771203537 11.120398619669572 22.115234423555965 -1 0 0
462 1 1 0.5897 6.522856238171798 15.329124497635823 4.424764797914062 -1 -1 2
69 1 1 0.5897 1.4263056950438684 11.972059369494108 1.4592294623147954 3 1 1
597 1 1 0.5897 4.687391454801531 14.001699387930433 1.74654528673964 0 -1 0
329 1 1 0.5897 3.527296649011957 12.455643337263854 3.7342108611705545 -1 1 1
596 1 1 0.5897 4.313223221492074 13.085567119129285 0.6007997259761242 1 -1 0
461 1 1 0.5897 7.288080173077083 15.024158865036107 3.154546386602622 -1 -1 2
330 1 1 0.5897 2.5699099978458744 13.358835798160923 2.9861014288597314 -1 1 1
460 1 2 -1.1794 6.445666371523042 15.350561172714746 3.4709045245657366 -1 -1 2
125 1 1 0.5897 2.6354034400963573 16.404688224237937 2.8534095149096887 1 1 2
130 1 2 -1.1794 5.46024305222606 12.690213252621831 3.7026276494727224 1 1 2
595 1 2 -1.1794 4.140960392358077 13.955138188845059 0.9619857578419854 0 -1 0
132 1 1 0.5897 5.562207743041778 13.640119414462102 3.762374235431856 1 1 2
328 1 2 -1.1794 2.607143039664537 12.542897563377565 3.485226861365982 -1 1 1
124 1 2 -1.1794 2.4549843251985783 15.505191581257401 3.126608965533597 1 1 2
603 1 1 0.5897 6.401057345894391 16.96943561077889 2.696894011099836 1 -1 2
126 1 1 0.5897 2.418381629224836 15.54737167713414 4.082190672987686 1 1 2
858 1 1 0.5897 0.428085368931302 15.485087529191166 0.9911217619840933 4 0 0
131 1 1 0.5897 5.3425567660036295 12.404026782005646 4.608461740848318 1 1 2
761 1 1 0.5897 1.8399423347780564 16.84365617399567 0.6949726900388568 -3 -1 1
67 1 2 -1.1794 1.541865943837348 12.28460226215455 0.5618753303926303 3 1 1
10 1 2 -1.1794 9.024409408651131 14.534280495509163 3.080422184403051 0 0 0
520 1 2 -1.1794 8.887778129381438 14.416413589240369 0.06994366971537061 0 0 1
68 1 1 0.5897 2.4330364834041913 12.023494326692925 0.3296912651359414 3 1 1
452 1 1 0.5897 2.9058509901876604 16.872953162975655 9.937229239633679 1 0 0
374 1 1 0.5897 7.847745612742229 15.125136538623412 6.389673671113966 -1 -1 0
211 1 2 -1.1794 4.623063223925146 14.28363912698574 7.262410266500229 1 0 0
213 1 1 0.5897 4.810857418709887 14.274328216470808 8.20098739193045 1 0 0
357 1 1 0.5897 6.40801426450711 15.31477751381144 10.428626362625096 1 -1 0
164 1 1 0.5897 0.5364683416967119 12.31755615737456 6.470725271147731 0 -1 0
373 1 2 -1.1794 6.947765050416957 15.365271917767874 6.169088396482404 -1 -1 0
212 1 1 0.5897 5.409077689402352 14.657535011431289 6.864085562727188 1 0 0
375 1 1 0.5897 6.8874277720520025 16.29552449634913 6.386502950329201 -1 -1 0
654 1 1 0.5897 1.009915081751644 14.54812844093236 6.274583210307165 2 -1 3
646 1 2 -1.1794 5.193876749667707 14.172539235819299 9.992093703134747 0 -1 0
557 1 1 0.5897 6.956529130345129 17.423215808639778 9.980058742923454 1 0 0
834 1 1 0.5897 1.746148004792522 15.035133753847482 10.220157244007932 0 0 0
647 1 1 0.5897 4.359647847751348 14.504410946689429 10.324072396457101 0 -1 0
587 1 1 0.5897 4.6963265974788895 12.541090857245813 6.761415998977075 2 1 0
458 1 1 0.5897 2.579897760000984 16.523869319986442 6.226157670325811 1 -1 1
698 1 1 0.5897 0.15095054853807383 12.812758498723282 9.751171129386208 1 -1 -1
652 1 2 -1.1794 0.26806958271817827 14.017056881022613 6.564262194029111 2 -1 3
459 1 1 0.5897 3.067661562460082 15.114737822849364 6.487821889116103 1 -1 1
355 1 2 -1.1794 7.203746874482714 15.796210509637934 10.6551243381277 1 -1 0
648 1 1 0.5897 5.234361481612903 13.268871329576163 10.305194130905363 0 -1 0
457 1 2 -1.1794 2.51619292854119 15.627368422172989 5.896739321665217 1 -1 1
303 1 1 0.5897 8.61266932658828 14.928188327693974 10.195623902518484 0 0 0
832 1 2 -1.1794 2.440815542391621 15.353451172420305 10.796698798232157 0 0 0
133 1 2 -1.1794 0.17435642735379683 14.624527369305667 9.229332560169906 1 -1 0
135 1 1 0.5897 0.05229929130143063 14.615850363027343 8.279956922521789 1 -1 0
697 1 2 -1.1794 0.17026874075868226 11.932372949171883 10.126445696737628 1 -1 -1
783 1 1 0.5897 6.510396727254363 17.108876702917186 14.431695850993778 3 -1 1
272 1 1 0.5897 5.237361503838341 13.265225847641087 14.146264542108202 0 -1 1
312 1 1 0.5897 8.192453182279028 15.624688338457192 13.715190406359955 2 0 -2
781 1 2 -1.1794 5.8738627110407124 17.647254493640805 14.902064326320206 3 -1 1
335 1 1 0.5897 2.098238216439899 13.96955101310473 13.340919272816809 -2 2 0
281 1 1 0.5897 4.026136528904338 16.722824938577055 15.034551674293608 0 0 0
271 1 2 -1.1794 5.726666004632221 13.638944995633885 14.879203803946757 0 -1 1
310 1 2 -1.1794 7.3488817070871395 15.418810293022199 13.312339810989233 2 0 -2
171 1 1 0.5897 6.505318976678419 14.926076996037727 16.195533835356443 0 1 -1
282 1 1 0.5897 2.9030538673369457 16.288325190043327 15.952119745890794 0 0 0
273 1 1 0.5897 6.403420129161419 12.989944567600569 15.07175517196361 0 -1 1
336 1 1 0.5897 2.331997686419664 15.372224145773018 13.860427165870727 -2 2 0
76 1 2 -1.1794 3.340415549121325 12.540766706759086 13.155523871295236 1 -1 0
311 1 1 0.5897 6.917869259806395 14.83946550194433 13.940711594563155 2 0 -2
833 1 1 0.5897 2.1372863689860324 15.139573232496405 11.678963978493776 0 0 0
334 1 2 -1.1794 1.6588202827394514 14.808687201695431 13.47894476338973 -2 2 0
280 1 2 -1.1794 3.072305896649081 16.661910762538575 15.087217147012726 0 0 0
356 1 1 0.5897 7.249566577002054 15.748373031129205 11.610056651204296 1 -1 0
170 1 1 0.5897 6.276903727066422 16.41748697720474 16.320210795823634 0 1 -1
864 1 1 0.5897 8.960346039474226 12.635206338236465 14.078808591263133 1 1 0
78 1 1 0.5897 3.5295371292652664 12.130395430831149 12.31165417248811 1 -1 0
77 1 1 0.5897 2.886864590163154 11.862443637432564 13.655979212301235 1 -1 0
862 1 2 -1.1794 8.652614988845075 11.839684138725604 13.644374111654908 1 1 0
322 1 2 -1.1794 6.479601246067771 13.649441506017041 18.997020626853484 0 0 0
793 1 2 -1.1794 0.08089826981388862 17.31617435612648 18.514596992278122 0 0 -1
670 1 2 -1.1794 0.15264078957518923 14.67723048226462 17.76422013491255 0 0 0
671 1 1 0.5897 0.7686470830567003 14.305528994866364 18.395596698592783 0 0 0
396 1 1 0.5897 5.625843470727381 14.581553603293624 21.960154730530363 0 0 -1
585 1 1 0.5897 1.5685279211061876 13.476852377471152 20.683282831766 1 1 0
321 1 1 0.5897 5.013895190052112 12.486777545010439 19.351144879544222 -2 1 0
319 1 2 -1.1794 4.235373243721714 11.957279719118256 19.178467312710453 -2 1 0
57 1 1 0.5897 2.453291353778618 16.182565836201775 18.412790938635162 -1 0 0
56 1 1 0.5897 3.3154019340834755 17.3473915492446 17.974641513923068 -1 0 0
266 1 1 0.5897 7.977442631824815 12.963156405868633 19.142677035864068 -4 0 0
760 1 2 -1.1794 1.9439764599271667 16.34331358974015 22.012125174425833 -3 -1 0
394 1 2 -1.1794 6.370279959710402 14.795347811066152 21.397668017794253 0 0 0
584 1 1 0.5897 2.5155235507788314 13.269993217783895 19.52034601490289 1 1 0
169 1 2 -1.1794 6.778192482928102 15.694341076806518 16.69711487006638 0 1 -1
583 1 2 -1.1794 1.7054149765836413 13.71642936367595 19.76668501828614 1 1 0
94 1 2 -1.1794 8.65091601783457 17.558522901269416 17.86674605516931 -2 2 -1
324 1 1 0.5897 6.414926052427033 14.313589209520769 18.310732088618863 0 0 0
323 1 1 0.5897 6.416291736606154 14.1426126209501 19.81498074018201 0 0 0
55 1 2 -1.1794 3.047787604387548 16.46497500318751 17.717739220218903 -1 0 0
96 1 1 0.5897 7.984817953763914 16.919349456239146 17.613647773591502 -2 2 -1
395 1 1 0.5897 6.381300861594459 15.752033293206722 21.367451232388383 0 0 0
265 1 2 -1.1794 8.752193815404127 12.40212960963701 19.106680575008077 -4 0 0
762 1 1 0.5897 2.738328263127151 15.827147931754496 22.149474034171945 -3 -1 0
521 1 1 0.5897 7.9324357098499405 14.375624098751372 22.15277103715981 0 0 0
672 1 1 0.5897 0.08495609849515773 15.59997667504552 18.009629495870243 0 0 0
795 1 1 0.5897 0.25723225425654045 17.589334570003036 19.414917351557882 0 0 -1
376 1 2 -1.1794 6.246401803604325 17.647961964435513 21.62573661280019 0 -1 0
500 1 1 0.5897 4.772300121921356 22.01983254932382 1.3993725824909726 2 0 2
501 1 1 0.5897 4.712707789117652 21.225981018394382 2.6871162780447437 2 0 2
387 1 1 0.5897 4.438060197991699 19.71839266892357 4.151581003556486 0 0 2
679 1 2 -1.1794 2.429649225908002 23.015100356982945 3.7058722157037653 1 0 1
742 1 2 -1.1794 2.345448983770358 18.08188796852887 2.205504477359656 -1 0 2
427 1 2 -1.1794 6.979655310860467 23.535707453549453 3.3206857559747633 0 -1 0
744 1 1 0.5897 1.7271887381901438 18.529305760423853 2.7833105709350368 -1 0 2
386 1 1 0.5897 5.2193419357607445 19.000360727272632 3.0717370258243473 0 0 2
429 1 1 0.5897 6.21537237282068 23.12053444365712 2.920945946559658 0 -1 0
162 1 1 0.5897 8.444586382579738 22.6281327379438 2.9226934775791964 3 -1 -1
385 1 2 -1.1794 4.484585458372336 19.599707486898183 3.2028785268780178 0 0 2
86 1 1 0.5897 8.500408083207018 18.549763531039446 3.1899932601274696 2 1 0
680 1 1 0.5897 3.2889253423260922 22.675474992820774 3.4556985982518214 1 0 1
499 1 2 -1.1794 4.824785738312621 22.11500048371191 2.3504125239166664 2 0 2
120 1 1 0.5897 0.942256588879591 22.48251662354564 2.888122516781352 1 -1 1
147 1 1 0.5897 0.1364024715474599 20.246737894248394 3.1333575006002397 0 -2 0
146 1 1 0.5897 0.3189119093411895 19.629147862289912 4.503499910295157 0 -2 0
743 1 1 0.5897 3.1462120078969256 18.603423018145993 2.2608964393217548 -1 0 2
118 1 2 -1.1794 0.07683051723161552 22.223461356098834 2.5715536120962526 1 -1 1
601 1 2 -1.1794 6.687811704266002 17.857018232732404 2.4818250794559513 1 -1 2
145 1 2 -1.1794 0.3565984491419693 19.42352397724599 3.569382048266433 0 -2 0
602 1 1 0.5897 6.50276199725664 17.94915788877838 1.5471838423388675 1 -1 1
842 1 1 0.5897 7.636802892816349 23.444656475510463 5.416944698923934 2 -1 0
317 1 1 0.5897 2.495601726389937 23.186846823420115 5.401129909609001 2 1 1
119 1 1 0.5897 0.06983037018421874 22.485193497716626 1.6508355696887367 1 -1 1
87 1 1 0.5897 9.005985628382067 19.96807367609659 3.0325333319244723 2 1 0
27 1 1 0.5897 9.053735670022995 21.830347139832416 0.8763391471980058 3 0 1
758 1 1 0.5897 4.7965908143609814 22.231747883280566 8.079087815046728 2 -1 1
660 1 1 0.5897 1.5364410382440252 18.41359605977201 10.60114061020698 2 -1 1
366 1 1 0.5897 8.1179243470438 23.047058790758882 10.236934912592297 -1 -1 -1
759 1 1 0.5897 4.005548697661927 22.83664634059581 6.938748359197776 2 -1 1
558 1 1 0.5897 7.824598018671608 18.661904619061577 9.91578755996353 1 0 0
556 1 2 -1.1794 6.954280981294495 18.334815187009983 9.688084068413323 1 0 0
74 1 1 0.5897 4.843126115091984 20.444907296054456 10.257861746407897 -1 0 2
453 1 1 0.5897 3.494090572790324 18.26789778616694 9.926190516199984 1 0 0
673 1 2 -1.1794 0.1666119396737584 19.736484253409195 6.381452225687117 -1 -2 0
843 1 1 0.5897 6.4827277197513835 23.147574291212127 6.350695612688617 2 -1 0
493 1 2 -1.1794 9.005215371041722 19.097662836573754 5.928270835875468 0 -1 -1
288 1 1 0.5897 0.42268639442232636 22.041980246501698 8.545149085173694 0 0 1
674 1 1 0.5897 0.98639979263017 19.3315424663164 6.664744255350391 -1 -2 0
696 1 1 0.5897 1.4383602830464757 22.14696929243271 10.531536707251615 -2 0 0
411 1 1 0.5897 5.483083731768429 19.1778240499449 6.392725953007507 -2 1 2
286 1 2 -1.1794 0.3846203532990483 22.245602323482945 7.610602214466148 0 0 1
635 1 1 0.5897 4.49528674146864 22.446544732366878 10.43388055068277 0 -2 -1
73 1 2 -1.1794 4.751177728184991 19.514079495405408 10.46125752421514 -1 0 2
155 1 1 0.5897 2.7344127306170787 18.068628570559554 7.705729981249746 -1 0 1
694 1 2 -1.1794 0.6694882009250696 21.700579132619 10.17678490848309 -2 0 0
770 1 1 0.5897 6.793402241202289 17.98176101029536 8.012275642470906 0 0 1
410 1 1 0.5897 4.819546845973273 20.52782683198763 6.56371040505046 -2 1 2
75 1 1 0.5897 5.549585366557351 19.113290590486308 10.117454963060649 -1 0 2
409 1 2 -1.1794 4.7225396304453335 19.688147571256618 6.114471684554126 -2 1 2
757 1 2 -1.1794 4.837827501894769 22.4083827053974 7.139200474299099 2 -1 1
318 1 1 0.5897 1.8383650413217054 23.03600124676677 6.756605241599571 2 1 2
771 1 1 0.5897 7.63667312858857 18.250099390805282 6.783894554159294 0 0 1
287 1 1 0.5897 0.1771417567261125 21.410506078477155 7.191280347762185 0 0 1
156 1 1 0.5897 3.1438772531853716 18.782561761095984 6.435035385695805 -1 0 1
636 1 1 0.5897 5.938257958151934 22.57300730741289 9.993579314223062 0 -2 -1
634 1 2 -1.1794 5.117527903221125 22.129452696495367 9.779247281231488 0 -2 -1
204 1 1 0.5897 8.818643025632126 22.24320139938477 6.944892035533571 0 0 -1
695 1 1 0.5897 0.6667508325263936 20.846751202303025 10.60951804729816 -2 0 0
154 1 2 -1.1794 2.455460396848618 18.22935658339885 6.804266445121144 -1 0 1
769 1 2 -1.1794 6.834517626200681 17.81363479787309 7.070827988015072 0 0 1
495 1 1 0.5897 9.088325737821203 19.97296696372521 6.306719076923322 0 -1 -1
841 1 2 -1.1794 7.404772512393529 23.40464880699462 6.344764825383108 2 -1 0
364 1 2 -1.1794 7.385659808979659 23.519419322969302 10.633106351239011 -1 -1 -1
316 1 2 -1.1794 2.573281529254334 23.461456986910193 6.314824409718377 2 1 2
451 1 2 -1.1794 2.8427324899360404 17.71758306617283 9.491250889015676 1 0 0
658 1 2 -1.1794 0.9255781794669667 18.986406014529607 11.064842543042511 2 -1 1
704 1 1 0.5897 1.3751191886104854 21.76812931672595 15.764429527638068 2 -1 1
682 1 2 -1.1794 2.788239839633906 23.305937178472647 11.297470895899894 0 0 0
365 1 1 0.5897 7.539749269979267 23.45416872640798 11.57559482472863 -1 -1 -1
264 1 1 0.5897 5.07655183052602 19.664120780525057 12.459972809697557 1 -1 1