LAMMPS (29 Aug 2024)
Processor partition = 0
  using 1 OpenMP thread(s) per MPI task
Reading data file ...
  orthogonal box = (0 0 0) to (18.207572 23.629178 22.213196)
  2 by 4 by 4 MPI processor grid
  reading atoms ...
  864 atoms
  reading velocities ...
  864 velocities
  scanning bonds ...
  2 = max bonds/atom
  scanning angles ...
  1 = max angles/atom
  orthogonal box = (0 0 0) to (18.207572 23.629178 22.213196)
  2 by 4 by 4 MPI processor grid
  reading bonds ...
  576 bonds
  reading angles ...
  288 angles
Finding 1-2 1-3 1-4 neighbors ...
  special bond factors lj:    0        0        0       
  special bond factors coul:  0        0        0       
     2 = max # of 1-2 neighbors
     1 = max # of 1-3 neighbors
     1 = max # of 1-4 neighbors
     2 = max # of special neighbors
  special bonds CPU = 0.001 seconds
  read_data CPU = 0.027 seconds
288 atoms in group ox
576 atoms in group hy
Setting atom values ...
  288 settings made for charge
Setting atom values ...
  576 settings made for charge
Finding SHAKE clusters ...
       0 = # of size 2 clusters
       0 = # of size 3 clusters
       0 = # of size 4 clusters
     288 = # of frozen angles
  find clusters CPU = 0.000 seconds
PPPM initialization ...
  extracting TIP4P info from pair style
  using 12-bit tables for long-range coulomb (src/kspace.cpp:342)
  G vector (1/distance) = 0.33192612
  grid = 15 18 16
  stencil order = 5
  estimated absolute RMS force accuracy = 0.023518172
  estimated relative force accuracy = 7.0824276e-05
  using double precision KISS FFT
  3d grid and FFT values/proc = 1694 180
WARNING: Communication cutoff 0 is shorter than a bond length based estimate of 3.4358. This may lead to errors. (src/comm.cpp:731)
WARNING: Increasing communication cutoff to 11.6149 for TIP4P pair style (src/KSPACE/pair_lj_cut_tip4p_long.cpp:497)
Generated 0 of 1 mixed pair_coeff terms from geometric mixing rule
Neighbor list info ...
  update: every = 1 steps, delay = 7 steps, check = yes
  max neighbors/atom: 2000, page size: 100000
  master list distance cutoff = 10.8154
  ghost atom cutoff = 11.6149
  binsize = 5.4077, bins = 4 5 5
  1 neighbor lists, perpetual/occasional/extra = 1 0 0
  (1) pair lj/cut/tip4p/long, perpetual
      attributes: half, newton on
      pair build: half/bin/newton
      stencil: half/bin/3d
      bin: standard
Setting up Verlet run ...
  Unit style    : real
  Current step  : 0
  Time step     : 2
Per MPI rank memory allocation (min/avg/max) = 8.176 | 8.183 | 8.191 Mbytes
   Step          Temp          PotEng         TotEng         E_pair         E_mol          Press            Lx             Ly             Lz           Volume          Pxx            Pyy            Pzz            Pxy            Pxz            Pyz      
         0   300           -5398.2284     -4884.0386     -5398.2284      0             -7250.7105      18.207572      23.629178      22.213196      9556.7825     -6530.1066     -6105.5831     -9116.4419     -2534.3347      134.02881      799.28573    
       500   290.00097     -4173.1215     -3676.0698     -4181.1145      0              406.07954      18.187296      23.602864      22.188459      9524.8899      1523.1221      570.98418     -875.86771     -785.33666     -462.1049       112.90725    
      1000   321.09778     -4196.6836     -3646.333      -4202.3369      0              1120.3179      18.208696      23.630635      22.214566      9558.5511      944.18423     -152.74837      2569.5178      869.78169      386.00813     -344.38548    
      1500   303.31114     -4157.5214     -3637.6565     -4157.5216      0              1314.3724      18.207018      23.628458      22.212519      9555.9091      1508.6877      370.5011       2063.9283      1311.3364      43.094129      113.08608    
      2000   291.27202     -4145.0906     -3645.8604     -4145.3381      0             -252.588        18.249242      23.683256      22.264033      9622.5481     -102.01861     -960.99027      305.24487      1374.5622     -329.16736     -168.15295    
      2500   291.6495      -4105.1431     -3605.2658     -4105.1542      0              1829.5446      18.139016      23.540207      22.129557      9449.2365      2469.9216      420.10914      2598.6031     -862.1457       101.40212      274.73392    
      3000   288.95818     -4100.8337     -3605.5693     -4100.8406      0             -1256.4588      18.290601      23.73693       22.314491      9688.1197     -2417.2306     -1562.4861      210.34019     -766.71338      353.13649      398.92878    
      3500   293.33548     -4124.6371     -3621.8701     -4124.7571      0              1023.3873      18.124315      23.52113       22.111622      9426.2812      1683.3576      1988.9365     -602.13214      523.56922     -1.4199848      379.60948    
      4000   292.90938     -4096.1091     -3594.0724     -4096.1093      0              170.53924      18.214258      23.637855      22.221353      9567.3144      732.88324     -92.056195     -129.20934      127.97431     -63.007834     -333.79766    
      4500   298.5684      -4120.5454     -3608.8094     -4120.559       0              109.94859      18.180317      23.593807      22.179945      9513.93       -888.79307      651.91002      566.72881      1088.4575      98.469055      253.72234    
      5000   306.9622      -4121.4553     -3595.3326     -4121.5416      0              407.92274      18.170216      23.580698      22.167621      9498.0802     -478.95261      362.09675      1340.6241      866.53058      148.63357     -323.90793    
      5500   284.45996     -4098.6912     -3611.1366     -4098.7052      0              12.97024       18.170287      23.580791      22.167708      9498.1923      179.28131      412.09649     -552.46709      1584.6595      51.373914      724.39178    
      6000   293.56361     -4069.89       -3566.732      -4070.6125      0              332.60878      18.226746      23.654061      22.236588      9587.0057      802.27815      151.86305      43.685147      729.43596     -962.21071     -461.35632    
      6500   293.15487     -4098.6306     -3596.1732     -4098.6727      0             -451.08083      18.135744      23.535962      22.125566      9444.1246     -1965.9152     -327.03593      939.70862      12.688187     -986.95909     -364.0779     
      7000   312.05795     -4074.6868     -3539.8301     -4074.9747      0              581.49245      18.124359      23.521186      22.111676      9426.3495      409.09123      967.21395      368.17217      722.10073      603.16944     -1188.0028    
      7500   312.34639     -4071.503      -3536.152      -4071.9204      0              965.24205      18.218122      23.642868      22.226066      9573.4032      1256.0274     -482.04655      2121.7453     -418.85248      445.38744      585.53605    
      8000   295.53339     -4082.9067     -3576.3726     -4083.2557      0             -908.96197      18.167773      23.577528      22.164641      9494.2499     -1942.9836     -1039.4934      255.59102     -391.20603      301.15801      414.00073    
      8500   316.25179     -4075.4319     -3533.3872     -4075.646       0              2932.591       18.138439      23.539459      22.128853      9448.3349      2241.6112      5154.5267      1401.6352     -14.799343      1137.6723     -178.18717    
      9000   301.34641     -4085.5501     -3569.0526     -4088.6857      0              6804.6485      18.118301      23.513325      22.104285      9416.9005      5646.8669      9923.1488      4843.9298      629.07073     -35.047914      863.57646    
      9500   311.90737     -4091.217      -3556.6184     -4092.4921      0              3460.97        18.212889      23.636077      22.219682      9565.1561      3696.2772      3353.8627      3332.77        579.16464      1049.8027     -39.788913    
     10000   313.79888     -4093.8263     -3555.9858     -4097.0251      0             -1926.78        18.13518       23.53523       22.124878      9443.2439     -2834.5006     -2189.6962     -756.14307     -527.68187     -734.77379     -104.13212    
     10500   299.90165     -4050.336      -3536.3148     -4052.5128      0              2903.4777      18.129442      23.527782      22.117876      9434.2818      3717.8877      2424.9583      2567.5871     -107.08638     -17.795754      824.01625    
     11000   321.89217     -4082.4647     -3530.7526     -4082.5604      0             -776.2736       18.172292      23.583392      22.170154      9501.3366     -1156.4816      848.87352     -2021.2127     -163.75355      233.43847      275.33699    
     11500   296.09119     -4087.0382     -3579.548      -4089.2966      0              4715.1193      18.153829      23.559432      22.14763       9472.4063      5528.1429      4404.9501      4212.2649      867.88179      636.19556      1770.9803    
     12000   291.75621     -4084.2526     -3584.1924     -4084.4419      0             -2862.0881      18.092075      23.479289      22.072289      9376.0671     -2818.675      -2279.0807     -3488.5086     -855.3844      -433.78955      602.38439    
     12500   308.09126     -4059.8414     -3531.7835     -4060.7062      0              3820.6409      18.159609      23.566932      22.15468       9481.4558      4539.8998      1845.1895      5076.8334      1131.5288      519.94948      1368.5297    
     13000   280.42083     -4066.3438     -3585.7121     -4066.981       0             -5930.8812      18.115873      23.510174      22.101323      9413.1156     -5165.7983     -6309.3358     -6317.5095      669.81557      523.21859      716.38314    
     13500   303.16415     -4085.7185     -3566.1056     -4085.7205      0              4158.2593      18.167025      23.576557      22.163728      9493.0769      3454.401       5199.1082      3821.2687     -1621.3791      229.76811      597.57987    
     14000   295.79394     -4035.9571     -3528.9764     -4038.5126      0              8660.8904      18.080772      23.46462       22.0585        9358.5049      7721.1177      7663.4934      10598.06       594.54956      825.34448      1661.1422    
     14500   298.96064     -4035.2649     -3522.8566     -4039.7816      0              7227.6167      18.177343      23.589947      22.176316      9509.2612      8072.5609      5718.0514      7892.2377      329.68559     -85.265941      1041.683     
     15000   291.2292      -4024.3342     -3525.1773     -4031.6601      0             -6667.7772      18.240086      23.671373      22.252863      9608.0715     -7943.4731     -7805.6479     -4254.2108      1143.4915     -320.75368     -1192.9898    
     15500   301.79728     -4080.8984     -3563.6281     -4084.7175      0             -805.56634      18.087262      23.473043      22.066417      9368.5857     -572.00112     -578.41466     -1266.2833     -177.54547      409.80591      164.73451    
     16000   285.69655     -4028.557      -3538.8829     -4031.1992      0             -1075.1307      18.137713      23.538516      22.127967      9447.2004     -1172.0751     -764.12973     -1289.1874      728.95114     -1191.3458      61.597424    
     16500   295.99711     -4016.2372     -3508.9082     -4020.854       0              3361.0203      18.114438      23.508311      22.099572      9410.8788      1738.1359      4219.9294      4124.9955     -1175.2773     -367.71559     -664.55148    
     17000   315.5745      -4069.3098     -3528.4259     -4069.4232      0              3829.1231      18.143168      23.545596      22.134622      9455.7267      4188.7221      4137.4242      3161.2229      148.85045      774.31437      365.53643    
     17500   288.03672     -4044.9962     -3551.3112     -4048.2634      0              4321.3637      18.167336      23.57696       22.164108      9493.5646      3302.6604      4526.2217      5135.2091      309.8445      -548.37011      526.41223    
     18000   279.82671     -4024.8766     -3545.2632     -4025.479       0             -2507.6844      18.153477      23.558974      22.147199      9471.8542     -1663.1515     -1963.1624     -3896.7393      912.8952       369.42662      180.36834    
     18500   288.64817     -4068.3555     -3573.6224     -4068.8506      0             -2691.3284      18.111337      23.504287      22.095789      9406.0464     -2101.4945     -2859.7242     -3112.7663     -63.19133       357.26209      108.89228    
     19000   302.94488     -4006.844      -3487.6068     -4009.4825      0             -7969.2586      18.144345      23.547123      22.136058      9457.5668     -7756.1743     -8534.783      -7616.8184      1374.2467     -55.039905      1583.6824    
     19500   288.99057     -4008.781      -3513.4611     -4017.669       0              3720.0177      18.090272      23.47695       22.07009       9373.2648      5491.4826      2603.8107      3064.7599      921.20203      753.60461      633.29135    
     20000   285.86079     -4042.9331     -3552.9775     -4047.0348      0             -10605.242      18.155824      23.562021      22.150063      9475.5294     -11748.342     -9534.4506     -10532.933     -1122.4033     -37.907647      1112.4852    
     20500   319.13402     -4019.0066     -3472.0218     -4023.6504      0              11630.113      18.090018      23.47662       22.06978       9372.8695      12201.258      12553.442      10135.639      185.57263      1759.0332     -826.73912    
     21000   292.76025     -4023.9293     -3522.1482     -4028.7094      0              2892.6683      18.079678      23.4632        22.057165      9356.8059      3986.9742      2548.7849      2142.2458     -660.47645     -190.76105     -270.787      
     21500   302.27238     -3979.8845     -3461.8        -3980.1011      0             -8800.6182      18.094482      23.482413      22.075226      9379.8094     -9457.6817     -8332.3439     -8611.829       1509.029      -1452.5579      581.55041    
     22000   287.77261     -4045.8064     -3552.574      -4048.9318      0             -6579.7819      18.14084       23.542574      22.131782      9452.0872     -8271.9222     -7701.2779     -3766.1456     -1068.6872     -1681.2628     -454.66819    
     22500   275.87596     -3991.832      -3518.99       -3998.8624      0             -5509.0122      18.094212      23.482062      22.074896      9379.3893     -4644.3752     -5307.8019     -6574.8593     -551.99464      253.66049      419.09255    
     23000   295.87333     -4010.9489     -3503.8321     -4014.1025      0             -3107.7282      18.003596      23.364464      21.964345      9239.1786     -3260.183      -2747.2659     -3315.7357     -16.97611      -958.01435      413.25858    
     23500   288.02533     -4003.7246     -3510.059      -4011.9883      0             -11412.806      18.135362      23.535465      22.125099      9443.527      -11733.404     -13339.45      -9165.5653     -782.09408     -2633.3043      1644.4873    
     24000   291.65681     -3994.694      -3494.8042     -4000.6584      0              4137.1534      18.120063      23.515612      22.106435      9419.6487      4055.7022      4043.4783      4312.2797     -204.70646      776.31094      783.51265    
     24500   304.99993     -4018.7059     -3495.9464     -4025.5585      0              8103.2475      18.10126       23.491209      22.083494      9390.3539      7581.5205      9351.8714      7376.3505     -935.34385      492.07851      352.66542    
     25000   308.16085     -4011.3768     -3483.1997     -4013.4686      0             -14561.273      18.167713      23.57745       22.164568      9494.156      -14743.47      -15491.305     -13449.044     -1394.8829     -2227.1561     -402.20759    
     25500   300.36734     -3977.2995     -3462.4802     -3977.7456      0              8810.5371      18.099203      23.48854       22.080986      9387.1537      9175.4907      8109.4199      9146.7008     -597.18417      798.75341      870.83036    
     26000   304.70134     -3967.9766     -3445.7289     -3980.5853      0             -6398.0814      18.066076      23.445549      22.040571      9335.7041     -6384.0623     -7003.3702     -5806.8116     -1431.7066     -2628.4293      1249.348     
     26500   297.23365     -3953.4613     -3444.013      -3954.4959      0              8390.638       18.20164       23.621479      22.205958      9547.4437      9076.7089      7330.3237      8764.8814     -831.12256      1.2912132      23.786468    
     27000   301.54912     -4009.4366     -3492.5917     -4020.954       0              6746.9719      18.0451        23.418327      22.01498       9303.2238      6212.7411      7192.2227      6835.952       960.15125     -1098.4973     -345.05615    
     27500   288.11768     -4000.5316     -3506.7077     -4004.7614      0             -728.52682      18.124641      23.521553      22.11202       9426.7901     -539.05356     -1390.111      -256.41591      598.5611      -706.21916     -870.97179    
     28000   301.58717     -4031.9209     -3515.0108     -4036.5427      0             -11369.208      18.092537      23.479889      22.072853      9376.7859     -13189.743     -9870.6923     -11047.188      315.68217     -1885.2282     -616.47748    
     28500   303.0017      -3979.9506     -3460.6161     -3980.7025      0              11694.334      18.071451      23.452524      22.047128      9344.0392      11874.312      13211.189      9997.5003     -1252.5589     -1495.8525     -43.02062     
     29000   293.35724     -3994.3834     -3491.5791     -3999.4624      0              15308.724      18.046808      23.420544      22.017064      9305.8658      15122.54       14844.69       15958.941     -182.42851      2209.1601     -317.18497    
     29500   301.86611     -4014.3427     -3496.9546     -4022.127       0              492.52294      18.046266      23.41984       22.016402      9305.0268      1049.4082      14.3578        413.80281     -443.6649      -327.82029     -33.976275    
     30000   308.0161      -3987.8388     -3459.9097     -4001.7592      0              9128.4003      18.088591      23.474768      22.068039      9370.6514      11143.551      7462.2084      8779.4416      418.99438     -596.23525      1015.8292    
     30500   288.7467      -4000.0547     -3505.1527     -4004.7163      0             -9715.6758      18.123438      23.519991      22.110552      9424.913      -10269.311     -12080.122     -6797.5944      347.46738      311.71876     -3281.3637    
     31000   285.85342     -4032.7815     -3542.8385     -4034.8127      0              894.95436      18.085731      23.471056      22.06455       9366.2072      372.05838      832.84398      1479.9607     -511.86368     -411.41266      152.93708    
     31500   278.30797     -4007.9049     -3530.8946     -4008.8443      0             -1348.7651      18.215836      23.639901      22.223277      9569.7999     -2085.907       3.7706967     -1964.159      -215.06368     -165.92801      138.65811    
     32000   302.48907     -3970.8204     -3452.3645     -3970.9353      0              4901.5587      18.115305      23.509436      22.10063       9412.2297      6651.5974      4135.79        3917.2886     -240.95393     -1247.8695      658.72887    
     32500   311.81932     -4015.6172     -3481.1695     -4015.6291      0             -5429.1524      18.087761      23.473691      22.067026      9369.3619     -7084.7573     -6092.9915     -3109.7083     -176.17173     -1262.2575     -378.17143    
     33000   303.83933     -3998.8388     -3478.0686     -4000.3754      0             -1352.4817      18.103784      23.494485      22.086575      9394.2836     -2438.0036     -2238.8023      619.36074     -845.75447     -1062.4851     -1336.7705    
     33500   322.08819     -3983.8065     -3431.7584     -3985.3368      0              5290.6887      18.0117        23.374981      21.974232      9251.6602      6046.7094      4761.8993      5063.4573     -1097.4974     -1025.5939      824.91306    
     34000   277.23355     -3982.2691     -3507.1003     -3982.3318      0              2595.868       18.124981      23.521993      22.112434      9427.3199      4039.7746      1159.5717      2588.2576     -642.56942     -229.54581      613.58815    
     34500   296.51709     -3999.1726     -3490.9524     -3999.1737      0              2095.0134      18.024732      23.391894      21.990132      9271.7572      1558.1406      1198.7562      3528.1434     -438.26615      113.49647      830.84502    
     35000   291.4318      -3960.209      -3460.7049     -3961.946       0             -2707.8933      18.013743      23.377633      21.976725      9254.8091     -4091.528      -2223.0808     -1809.071      -13.579262      565.68431     -990.44991    
     35500   284.31339     -3998.8733     -3511.5699     -3999.334       0             -3233.4663      18.087857      23.473815      22.067143      9369.5108     -3863.8796     -4623.7039     -1212.8154     -1653.0727     -970.4538      -1275.4179    
     36000   301.94434     -3991.3627     -3473.8405     -3991.3721      0             -1670.9625      17.988947      23.345453      21.946474      9216.6439     -857.47443     -3389.7359     -765.6771       1272.1505     -1211.3025     -1086.208     
     36500   288.03654     -3972.7192     -3479.0344     -3972.729       0             -1291.8747      18.054348      23.430329      22.026263      9317.5347     -1379.1281     -1607.8407     -888.65539      819.5716       120.22335     -258.89644    
     37000   291.33629     -3964.9156     -3465.5752     -3966.2729      0             -5329.9696      18.061687      23.439852      22.035215      9328.9006     -4170.6932     -6063.1597     -5756.056       694.57609     -421.61354     -1673.9831    
     37500   312.87771     -3940.3847     -3404.123      -3940.7286      0             -410.24227      18.076681      23.459311      22.053509      9352.1539     -954.41792     -384.82034      108.51145     -246.43257      657.48825      277.37439    
     38000   308.70587     -3905.7061     -3376.5948     -3905.8998      0             -1955.2227      18.064397      23.443369      22.038522      9333.1004     -4570.5254     -1373.3558      78.213211      479.38687     -643.45884      656.03162    
     38500   300.30312     -3991.0496     -3476.3404     -3992.1095      0              3261.8698      18.00212       23.362548      21.962544      9236.9053      4783.8475      1992.4258      3009.3362     -103.51837     -243.59005     -480.13927    
     39000   303.0289      -3969.1545     -3449.7733     -3970.2827      0              928.36998      17.994618      23.352812      21.953391      9225.3623      841.41957      1583.4257      360.26466     -156.02626     -414.81688     -397.07138    
     39500   314.79953     -3974.5701     -3435.0144     -3974.6683      0             -1958.8176      18.061754      23.43994       22.035298      9329.0056     -1647.3266     -2088.07       -2141.0562     -121.14728     -4.651778      -48.974518    
     40000   313.5885      -3968.0202     -3430.5402     -3968.5273      0              4392.0504      18.152871      23.558188      22.14646       9470.906       4542.9849      4296.9117      4336.2545     -426.14787      1496.8637      1012.7687    
     40500   297.78923     -3998.4737     -3488.0731     -4001.7537      0             -9510.9068      18.076567      23.459163      22.05337       9351.9771     -9378.7552     -10281.358     -8872.6067      470.61048     -1892.5273      2081.2897    
     41000   297.88225     -3962.4394     -3451.8794     -3963.536       0             -13399.945      18.105336      23.496499      22.088467      9396.6991     -17522.416     -12296.072     -10381.348     -2097.0907     -1544.6409     -1357.8308    
     41500   299.41126     -3997.2861     -3484.1054     -4001.9199      0              7896.7265      18.093871      23.481619      22.07448       9378.859       8517.146       8864.5893      6308.4441      708.33899      1037.1921      962.93044    
     42000   302.92484     -3982.8041     -3463.6013     -3982.8475      0              10918.515      18.043135      23.415776      22.012582      9300.1838      9999.342       10651.853      12104.351     -65.664196     -21.500641      1623.5102    
     42500   295.38384     -4001.813      -3495.5352     -4006.2869      0             -8925.934       17.991283      23.348485      21.949323      9220.2349     -9652.7238     -8729.9017     -8395.1763     -1011.0795     -1002.302      -214.51832    
     43000   294.26373     -3942.4765     -3438.1185     -3944.3575      0             -2295.5564      18.177289      23.589877      22.17625       9509.1759     -1971.1374     -1674.1151     -3241.4166      1268.6796     -1061.7343     -724.01802    
     43500   298.94462     -3974.7967     -3462.4158     -3975.6879      0              7843.5418      17.972429      23.324017      21.926321      9191.2779      6205.6349      8857.1123      8467.8781     -215.12025      636.44927      491.05491    
     44000   314.9653      -3944.3234     -3404.4837     -3953.155       0             -4023.2302      18.036677      23.407396      22.004704      9290.2025     -4836.8273     -2771.1557     -4461.7075     -158.48596     -158.74997      655.04715    
     44500   295.74981     -3964.6788     -3457.7737     -3965.1971      0             -10002.001      18.005394      23.366798      21.966539      9241.9469     -10509.217     -9307.1703     -10189.615     -308.95919      908.82907     -1458.9901    
     45000   315.59643     -3920.1532     -3379.2317     -3931.6549      0             -7842.9779      18.122426      23.518678      22.109318      9423.3343     -5292.0274     -6403.0709     -11833.835      454.96184     -1000.0286     -952.44314    
     45500   311.43364     -3978.4722     -3444.6856     -3999.6793      0             -7205.9331      18.046531      23.420183      22.016725      9305.4361     -8780.1483     -5161.2673     -7676.3836     -1980.8054      1246.3957     -115.19067    
     46000   319.33178     -3948.1762     -3400.8525     -3957.2165      0              10279.669      18.09498       23.483059      22.075833      9380.5842      12704.342      7821.1199      10313.544     -1564.5682      576.11451      2985.4134    
     46500   309.50671     -3928.4404     -3397.9565     -3930.3021      0             -14090.742      18.093385      23.480989      22.073887      9378.1039     -16078.603     -12799.125     -13394.496     -959.12739     -67.002496     -1740.5254    
     47000   300.16765     -3961.206      -3446.7289     -3967.2336      0              11277.711      18.103288      23.493841      22.085969      9393.5105      13542.393      8964.0393      11326.701      1615.2576      2234.8779     -72.993338    
     47500   286.86016     -3936.6709     -3445.0024     -3942.0025      0             -13657.944      18.109678      23.502134      22.093765      9403.4621     -15781.806     -11278.44      -13913.585     -101.93761     -2114.6596     -2944.1883    
     48000   311.71858     -3966.2518     -3431.9769     -3966.6351      0              10446.153      18.05718       23.434003      22.029717      9321.9191      10860.421      10970.624      9507.4158     -296.02199     -480.31909     -272.37018    
     48500   294.75775     -3936.1594     -3430.9547     -3939.4946      0             -2628.6706      18.087582      23.473458      22.066807      9369.0827     -2337.382      -2646.1847     -2902.4452      485.86061      710.92051     -400.2907     
     49000   308.58718     -3978.4661     -3449.5582     -3978.4661      0             -5075.7204      18.081414      23.465453      22.059283      9359.5015     -6385.4597     -4899.666      -3942.0354      1031.0227     -567.69215      1293.7049    
     49500   319.53369     -3925.5165     -3377.8467     -3925.8523      0              383.05455      18.025409      23.392772      21.990957      9272.8013      1801.8687     -815.09933      162.39433     -590.30213     -41.625982      124.90522    
     50000   289.70318     -3941.5877     -3445.0464     -3942.4406      0             -9790.4227      18.109725      23.502195      22.093822      9403.5347     -10279.577     -10140.062     -8951.629       1603.2345     -1350.1466     -1012.6674    
     50500   296.83448     -3945.2234     -3436.4593     -3945.6192      0             -5799.5598      18.01165       23.374916      21.974171      9251.583      -6649.9288     -4847.0606     -5901.6899      796.86831      353.72822     -262.66755    
     51000   303.6235      -3976.6181     -3456.2178     -3978.3475      0              4116.6762      18.00921       23.371749      21.971194      9247.8232      4322.2451      4665.6137      3362.1698     -577.74083      15.144011     -133.77204    
     51500   316.30071     -3954.5083     -3412.3797     -3958.7473      0             -5750.6413      18.026988      23.394822      21.992883      9275.2385     -5405.6688     -5466.6447     -6379.6104     -1471.8094      661.175       -144.792      
     52000   298.57222     -3937.1346     -3425.392      -3941.7423      0              12562.717      18.011794      23.375104      21.974347      9251.8057      14530.647      11427.486      11730.019      1953.905       308.63459     -1008.2155    
     52500   285.88325     -3994.2418     -3504.2477     -3996.2404      0             -536.03684      18.077684      23.460613      22.054732      9353.7107     -199.05172     -741.84267     -667.21614     -748.33271      646.49895     -426.27169    
     53000   320.50829     -3921.9143     -3372.5741     -3924.0487      0              1428.1698      18.013531      23.377358      21.976466      9254.4827      352.97515      2266.436       1665.0984      360.87726     -111.96102     -317.93604    
     53500   302.19655     -3919.422      -3401.4674     -3928.8131      0              5613.9702      18.05813       23.435237      22.030877      9323.3914      4474.4325      5932.1454      6435.3329      947.63496      717.84378      1266.2271    
     54000   309.07182     -3962.447      -3432.7085     -3969.7294      0              11052.301      17.944019      23.287147      21.891662      9147.7598      9520.4892      12134.589      11501.824     -118.94321      192.16532      412.27484    
     54500   284.14396     -3907.7811     -3420.7681     -3916.9819      0              13155.897      18.06713       23.446916      22.041856      9337.3375      11829.755      16985.616      10652.32      -1144.9459      990.4221       1950.4264    
     55000   290.77527     -3930.1921     -3431.8132     -3931.5632      0             -12157.894      18.123732      23.520372      22.11091       9425.3706     -14288.504     -12586.121     -9599.0577     -321.66801      862.17133     -1514.3491    
     55500   292.78832     -3960.8043     -3458.9751     -3966.7522      0              4038.8145      18.123985      23.5207        22.111219      9425.7654      4273.2316      3964.0955      3879.1163     -444.0174      -960.32234      851.78104    
     56000   304.55528     -3955.2099     -3433.2126     -3956.9013      0              12031.459      18.098802      23.488019      22.080496      9386.5296      12173.878      9447.7135      14472.784     -592.82187     -1505.4489     -1159.9225    
     56500   273.31416     -3966.7369     -3498.2858     -3977.0449      0             -15114.508      18.077774      23.46073       22.054842      9353.8507     -17400.958     -11725.504     -16217.062      772.71413      2685.518       1740.789     
     57000   300.07443     -3927.8154     -3413.4981     -3928.0353      0             -7301.8184      18.110778      23.503561      22.095107      9405.1752     -8507.4016     -7666.9555     -5731.098      -351.05399     -1650.6763      1414.3338    
     57500   299.50303     -3909.347      -3396.009      -3910.1538      0             -3674.9156      18.071779      23.45295       22.047528      9344.5476     -2015.1244     -4069.0984     -4940.5239     -4.614505      -577.51025      867.72439    
     58000   307.03077     -3958.5032     -3432.263      -3959.3086      0             -8007.8073      17.947303      23.291409      21.895668      9152.7829     -8349.0854     -8534.5201     -7139.8164      740.50432      1819.6306     -382.13756    
     58500   287.41392     -3963.2195     -3470.6019     -3965.7946      0              10503.789      17.927465      23.265664      21.871465      9122.4649      10053.419      9361.2742      12096.674      1114.473       297.11487     -65.190591    
     59000   308.10421     -3961.9186     -3433.8385     -3962.0995      0              9795.1183      18.058672      23.43594       22.031538      9324.2305      9727.3678      10512.491      9145.4959     -589.04887      2975.6622     -3318.376     
     59500   297.18437     -3945.9887     -3436.6248     -3947.6798      0             -1411.5629      18.044762      23.417888      22.014568      9302.7011     -1444.3665     -1071.4983     -1718.8238      653.90492      1525.7838      110.24847    
     60000   300.71631     -3999.3996     -3483.9822     -4004.5165      0             -4351.5713      18.001838      23.362182      21.9622        9236.4713     -4490.5643     -3262.1692     -5301.9806     -1688.0614      1327.1509      320.14656    
     60500   312.13487     -3923.5338     -3388.5453     -3925.1157      0              5704.5435      18.071044      23.451996      22.046632      9343.4083      5988.3586      3480.7805      7644.4914      328.22736     -1939.4977      849.6063     
     61000   279.86166     -3921.7664     -3442.0931     -3922.3927      0              8546.4341      18.009511      23.37214       21.971561      9248.2873      9001.3757      8319.4944      8318.4323      266.90023     -1320.2021      189.68586    
     61500   295.26309     -3988.4235     -3482.3526     -3990.9085      0             -5944.389       17.992621      23.350221      21.950955      9222.2915     -6768.3933     -5636.7962     -5427.9775      1875.0975      227.90452     -385.31176    
     62000   291.20296     -3951.5027     -3452.3908     -3952.8954      0             -4226.6318      17.989136      23.345698      21.946704      9216.9341     -6289.2825     -2910.1962     -3480.4167      761.86061      1160.1981     -886.79942    
     62500   290.86514     -3879.976      -3381.4431     -3882.7922      0             -7096.6833      17.991164      23.34833       21.949177      9220.0508     -6766.1445     -6758.9063     -7764.9989     -2066.2884     -1360.687      -2143.8884    
     63000   298.12099     -3950.659      -3439.6898     -3950.7049      0             -9087.8001      18.075067      23.457217      22.05154       9349.6494     -8213.9638     -9761.2873     -9288.1493     -1833.9811     -328.08157     -1729.1183    
     63500   304.40483     -3931.0231     -3409.2837     -3931.8278      0             -8785.7593      18.077658      23.460579      22.0547        9353.6699     -10763.129     -7833.51       -7760.6392     -1318.0451      673.08706     -617.19824    
     64000   299.24019     -3961.3663     -3448.4789     -3962.6532      0             -2380.6409      18.024669      23.391811      21.990054      9271.6586     -1834.6153     -2358.0028     -2949.3047     -872.64459     -259.02198      382.01888    
     64500   306.64676     -3991.1433     -3465.5612     -3992.5602      0             -681.73268      17.958028      23.305327      21.908752      9169.2006     -564.13982     -124.39959     -1356.6586     -224.74245      307.47047      281.25537    
     65000   295.29818     -3947.3436     -3441.2126     -3947.8479      0              7762.5049      18.026457      23.394133      21.992236      9274.4193      9981.0357      6547.6952      6758.7837     -154.50789     -413.57417      679.33074    
     65500   298.64809     -3923.1891     -3411.3164     -3926.3517      0              190.04034      17.993184      23.350952      21.951643      9223.1579      799.85719      1461.505      -1691.2412      501.15074     -182.42914     -413.31428    
     66000   281.58377     -3937.3619     -3454.737      -3939.466       0             -1132.1883      18.071919      23.453131      22.047699      9344.7649      832.58688     -2303.4191     -1925.7325      19.84378       835.15133      590.38543    
     66500   300.13728     -3941.3165     -3426.8915     -3941.9174      0              2257.1278      18.018651      23.384002      21.982712      9262.3752      3469.1956      2483.6471      818.54079      239.58615     -522.87483      386.0447     
     67000   294.36684     -3930.0939     -3425.5592     -3931.631       0              11126.101      17.977621      23.330754      21.932655      9199.2455      14062.712      8548.1916      10767.398      6.2356531     -2119.5846      135.30162    
     67500   297.42062     -3911.8329     -3402.0642     -3915.7784      0             -7114.0629      17.986375      23.342115      21.943335      9212.6903     -9090.9566     -6881.2822     -5369.95       -2516.8115      303.5211       572.10132    
     68000   312.74979     -3955.6934     -3419.6509     -3962.4405      0              4475.722       17.999327      23.358924      21.959137      9232.6069      5834.0531      2517.6411      5075.4718      632.90467      508.43234     -1818.8746    
     68500   297.48305     -3909.6549     -3399.7792     -3912.1586      0              13892.782      17.989294      23.345903      21.946897      9217.1769      16523.284      14650.99       10504.071      3553.5135     -864.89409     -285.04569    
     69000   280.73429     -3908.3567     -3427.1878     -3909.9455      0             -6485.0237      17.932943      23.272772      21.878148      9130.8297     -7842.9425     -6005.007      -5607.1217      69.893407      1980.2373     -118.48091    
     69500   290.2665      -3929.8513     -3432.3444     -3937.0342      0              4934.9916      18.108983      23.501232      22.092917      9402.3794      5037.3193      3491.9337      6275.7218     -996.79499      224.62107     -37.332871    
     70000   297.01386     -3883.5142     -3374.4426     -3885.9347      0             -10915.178      18.112921      23.506343      22.097722      9408.5147     -10299.835     -14362.617     -8083.0817     -1045.6079      154.05339     -520.88295    
     70500   297.49438     -3924.3716     -3414.4764     -3925.5018      0             -6760.0566      18.031471      23.400639      21.998352      9282.159      -6613.6759     -7826.6136     -5839.8804     -1303.9252      168.08936      568.76175    
     71000   292.45433     -3923.6518     -3422.3951     -3926.1664      0              12888.354      18.028342      23.396578      21.994535      9277.3279      13010.332      12008.187      13646.543      1407.3097     -1503.5494      167.32552    
     71500   301.3076      -3876.4803     -3360.0494     -3879.5639      0             -6915.8174      18.115125      23.509202      22.10041       9411.9489     -7223.1745     -7465.2589     -6059.0188      415.84051     -1035.7937     -577.55989    
     72000   292.51031     -3921.4564     -3420.1037     -3926.6865      0             -10366.383      18.032173      23.401551      21.999209      9283.2441     -7036.5817     -11953.111     -12109.456     -917.48251      2019.4855     -1393.1359    
     72500   300.86206     -3937.9953     -3422.328      -3938.2339      0             -7778.0728      18.085305      23.470504      22.06403       9365.5458     -7723.5728     -9211.4122     -6399.2335     -1421.8459     -169.80867      786.7272     
     73000   291.63316     -3942.8917     -3443.0424     -3942.9273      0              6105.4686      18.059045      23.436424      22.031993      9324.808       6806.5758      7058.6159      4451.2141     -1506.4683     -1578.7199      1416.4814    
     73500   307.47062     -3937.5881     -3410.594      -3937.9365      0              513.83748      17.953588      23.299566      21.903336      9162.4023      371.55892     -57.468621      1227.4221      994.39317     -147.49497     -498.35032    
     74000   304.64092     -3940.2587     -3418.1146     -3940.2914      0             -2153.3718      18.124395      23.521233      22.111719      9426.4052     -1627.2702     -2310.6143     -2522.2307     -1001.1358      1325.1482     -125.21289    
     74500   302.0348      -3949.3869     -3431.7096     -3949.8234      0             -4877.6073      18.118153      23.513132      22.104104      9416.6694     -5764.336      -5340.6248     -3527.8611     -705.49669      608.33137      1304.8051    
     75000   300.8471      -3932.3184     -3416.6768     -3933.2617      0             -7716.3055      18.02435       23.391398      21.989665      9271.1674     -5653.0323     -8750.2362     -8745.6481     -1247.8054     -1049.0072     -1687.9698    
     75500   318.59462     -3937.217      -3391.1568     -3938.2967      0             -4566.4041      18.090271      23.476948      22.070089      9373.2629     -5704.0905     -6184.8069     -1810.3149      1013.1003     -134.13372     -626.50327    
     76000   311.8515      -3914.0829     -3379.5801     -3917.6007      0              7805.01        18.072404      23.45376       22.04829       9345.5168      4889.0119      9661.8525      8864.1655     -214.08381      95.252782      646.38386    
     76500   309.50871     -3899.1562     -3368.6688     -3899.5552      0              2.4686136      18.06883       23.449122      22.04393       9339.9732      1208.5251     -791.94885     -409.17044      715.48835     -451.51489      300.63387    
     77000   326.73225     -3970.2423     -3410.2344     -3970.2534      0             -3159.3816      17.999306      23.358897      21.959112      9232.5757     -2252.4372     -4438.1137     -2787.5938     -11.09856       579.91109      28.027581    
     77500   303.25183     -3948.488      -3428.7248     -3948.6907      0              271.27047      18.003967      23.364946      21.964798      9239.7499      897.73986     -373.62546      289.69701     -952.2334       970.50809     -225.56643    
     78000   290.25338     -3931.2857     -3433.8013     -3932.4659      0             -1545.2247      18.023715      23.390574      21.98889       9270.1873     -2073.8201     -1495.4417     -1066.4122     -176.36786     -426.71317      1304.6846    
     78500   301.57528     -3909.0705     -3392.1808     -3909.154       0              3487.7646      18.095531      23.483775      22.076506      9381.4419      3108.1084      3890.683       3464.5023      289.03921     -1078.9497      323.77105    
     79000   290.69246     -3963.6562     -3465.4193     -3966.9928      0             -5629.2317      18.012139      23.375551      21.974767      9252.3367     -7621.1038     -5973.9632     -3292.628       574.14424      921.11506      506.58937    
     79500   282.73389     -3912.9236     -3428.3274     -3916.1579      0              997.83483      18.035897      23.406384      22.003753      9288.9974      1738.5537      343.99966      910.95111      688.96075      759.78357     -117.64515    
     80000   286.57589     -3958.0763     -3466.895      -3959.6732      0              7191.6423      18.013133      23.37684       21.97598       9253.8682      7769.1446      6077.4051      7728.3772      1579.59       -1604.5345     -654.43907    
     80500   309.53607     -3945.378      -3414.8438     -3945.5748      0             -9314.4657      17.982504      23.337091      21.938612      9206.7431     -10884.688     -10095.421     -6963.2876     -362.91799      1094.7878     -554.60605    
     81000   306.70672     -3936.2161     -3410.5313     -3938.1379      0             -534.81743      17.970292      23.321243      21.923714      9187.9995     -1059.6033     -665.51749      120.66853      831.82604     -297.1059      -97.184015    
     81500   310.78288     -3959.2568     -3426.5856     -3959.5897      0             -6929.5892      17.994239      23.352321      21.95293       9224.7801     -7134.6701     -7166.1971     -6487.9005     -1571.4937      107.57993     -1458.7858    
     82000   305.15965     -3922.558      -3399.5248     -3928.9497      0             -7183.7711      18.027169      23.395056      21.993104      9275.5176     -7136.456      -8781.4641     -5633.3933      599.00476      899.23566     -568.72931    
     82500   307.08023     -3922.1694     -3395.8444     -3927.286       0             -6796.6889      18.012332      23.375802      21.975003      9252.6346     -5220.8729     -7752.3733     -7416.8203     -1069.19        648.09788     -309.47199    
     83000   302.26351     -3933.1042     -3415.0349     -3937.8491      0              287.57292      18.008363      23.37065       21.970161      9246.5188     -826.50859      1585.072       104.1554      -572.25587     -146.23614     -1939.0162    
     83500   309.98876     -3931.6207     -3400.3105     -3934.4381      0              10847.787      17.942718      23.285459      21.890075      9145.7702      12436.643      9684.6932      10422.026      963.42336      80.889066      240.43435    
     84000   281.63773     -3911.8515     -3429.134      -3911.8907      0             -2654.8011      17.993333      23.351144      21.951824      9223.386      -2445.9769     -1233.6646     -4284.7618      1216.2474     -1711.1246     -937.74391    
     84500   302.0339      -3944.0894     -3426.4136     -3945.424       0              698.94516      17.960072      23.30798       21.911246      9172.3326      54.836742     -876.4657       2918.4644      979.89199      59.389229     -1375.7855    
     85000   295.0506      -3940.7734     -3435.0667     -3944.0072      0             -10205.824      17.982797      23.337472      21.938971      9207.1944     -10808.446     -11181.447     -8627.58       -1438.5603     -1075.123      -1120.4279    
     85500   277.50379     -3962.7535     -3487.1215     -3962.7672      0              5094.2657      18.105147      23.496254      22.088237      9396.4056      6016.5757      4706.7457      4559.4758      59.770472     -511.53589      435.56149    
     86000   310.64108     -3907.7237     -3375.2955     -3910.5107      0              10818.942      18.000628      23.360612      21.960724      9234.6094      11180.397      13199.621      8076.8092      305.22533     -151.28947      2283.6838    
     86500   285.9608      -3900.2663     -3410.1393     -3902.0394      0             -7433.4078      18.1494        23.553683      22.142225      9465.4735     -8017.8747     -7318.3591     -6963.9896      66.293969     -442.64597     -1628.8146    
     87000   314.13415     -3997.2123     -3458.7971     -3998.0355      0             -2799.6359      18.03935       23.410865      22.007965      9294.3333     -3685.1944     -3493.89       -1219.8234     -373.38571     -796.30578     -633.10974    
     87500   309.6496      -3977.4633     -3446.7345     -3980.4822      0              4367.5247      18.052259      23.427617      22.023714      9314.3003      4057.1985      4115.3488      4930.0269     -452.30772     -267.20991      2958.9018    
     88000   296.7984      -3964.5134     -3455.8111     -3964.5143      0              6245.1823      18.11714       23.511817      22.102868      9415.0896      6681.0751      6232.9173      5821.5545      768.695       -918.2145       1607.3001    
     88500   301.93475     -3928.8744     -3411.3685     -3929.9299      0             -9616.8792      18.142696      23.544983      22.134046      9454.9884     -10690.91      -9269.4648     -8890.263      -821.47044     -425.49817     -391.05996    
     89000   316.9235      -3968.398      -3425.202      -3968.4263      0              3147.9288      17.958417      23.305832      21.909227      9169.7971      3686.8703      2477.6466      3279.2694      1537.5003     -706.46884      1026.6373    
     89500   294.66767     -3949.0275     -3443.9772     -3949.0895      0              1734.8046      18.015065      23.379348      21.978337      9256.846       2249.5881      1408.7018      1546.124      -107.43649     -828.62607      247.72922    
     90000   309.77333     -3985.0858     -3454.145      -3985.0892      0             -2771.4266      18.037541      23.408516      22.005757      9291.5364     -3871.3152     -2806.1485     -1636.816      -214.14472     -389.601       -510.15239    
     90500   307.54208     -3949.5253     -3422.4087     -3950.1286      0             -13134.716      18.036511      23.40718       22.004502      9289.9456     -14158.054     -14403.537     -10842.556      295.70265     -820.54052     -436.76519    
     91000   305.08957     -3916.7904     -3393.8774     -3919.5114      0             -13205.582      18.050221      23.424972      22.021227      9311.1454     -15256.81      -12407.988     -11951.948     -2354.1979     -500.04415      183.18615    
     91500   287.43979     -3948.3917     -3455.7297     -3948.4271      0              4740.6095      18.124247      23.521041      22.111539      9426.1742      5949.8128      4277.8272      3994.1886      87.362177      591.92002      771.63387    
     92000   289.74269     -3958.7403     -3462.1313     -3959.4698      0              9493.1953      18.001209      23.361366      21.961433      9235.5032      8998.8381      8195.6591      11285.089     -498.01319     -134.8288       478.81566    
     92500   304.0098      -3918.7257     -3397.6634     -3921.355       0             -3618.3544      18.133611      23.533194      22.122964      9440.7931     -3791.174      -3969.7942     -3094.095      -1235.0161     -1201.1714      568.08549    
     93000   318.6752      -3930.6855     -3384.4872     -3932.7193      0              2403.2937      18.064996      23.444147      22.039253      9334.0295      2885.9656      2099.2227      2224.6929     -45.41932      -1196.5805      545.91555    
     93500   297.29988     -3950.8148     -3441.253      -3951.0838      0              9864.8614      18.027693      23.395736      21.993743      9276.3258      11809.504      9034.9695      8750.1111      363.39118      169.28747      973.1939     
     94000   289.68574     -3906.5483     -3410.0369     -3910.3073      0              5377.8675      18.057972      23.435031      22.030684      9323.1462      7435.7385      5676.9777      3020.8864     -183.26005      28.564865      1292.0513    
     94500   288.66235     -3939.4083     -3444.6509     -3940.2911      0             -10873.283      18.050307      23.425084      22.021332      9311.2785     -10760.374     -11063.884     -10795.592      1681.704      -633.90319     -237.42496    
     95000   299.22124     -3915.8818     -3403.0268     -3916.556       0             -16218.811      18.062762      23.441247      22.036527      9330.5668     -15453.914     -17479.227     -15723.293      1171.7268     -1062.17        1384.974     
     95500   295.74088     -3939.7591     -3432.8694     -3942.3381      0              16281.964      18.003069      23.363781      21.963702      9238.3673      18007.508      15243.74       15594.645      2026.9309     -3019.9167      296.94191    
     96000   301.54367     -3928.884      -3412.0485     -3938.2608      0             -18510.679      18.066725      23.446391      22.041362      9336.7101     -16235.202     -20218.166     -19078.67       2075.3952     -792.81926      1450.3161    
     96500   305.26915     -3878.6846     -3355.4638     -3879.3868      0              7828.2592      17.943322      23.286243      21.890811      9146.6938      7886.1398      9143.6168      6455.021       9.4228281     -1449.4784      2059.7751    
     97000   312.8185      -3895.4805     -3359.3202     -3896.5128      0             -696.1632       17.988328      23.34465       21.945719      9215.6926     -579.35283     -417.82716     -1091.3096     -287.42143     -130.65616      166.28116    
     97500   294.14563     -3908.1862     -3404.0306     -3913.0098      0             -9795.3322      17.963112      23.311925      21.914955      9176.9908     -10470.696     -11245.087     -7670.214      -468.93779     -960.69695     -2603.6736    
     98000   303.53138     -3905.7588     -3385.5164     -3917.461       0              15188.479      18.049638      23.424216      22.020516      9310.2439      12994.575      17555.687      15015.174      1177.055      -3056.3296      3435.6013    
     98500   295.93319     -3916.8779     -3409.6586     -3924.2864      0             -2042.971       18.04028       23.412071      22.009099      9295.7702     -1468.5785     -1960.6127     -2699.7219      500.13708     -100.51994      111.01281    
     99000   299.11803     -3918.7715     -3406.0934     -3930.0433      0             -8455.6271      17.922266      23.258916      21.865122      9114.5305     -7516.9664     -11098.108     -6751.8068     -299.52533      1505.4565     -1102.9966    
     99500   310.68823     -3912.9957     -3380.4867     -3922.4963      0              2667.8047      17.940779      23.282943      21.887709      9142.8056      2567.2529      3905.8862      1530.2749     -1512.9821      95.585291      1219.5348    
    100000   298.20031     -3871.7741     -3360.669      -3879.9619      0              2055.1347      18.035982      23.406494      22.003856      9289.1282      2461.3225      1366.1147      2337.9669     -720.91506     -1016.8847     -869.09152    
    100500   297.82025     -3947.672      -3437.2182     -3948.0777      0             -4718.6615      17.972345      23.323907      21.926219      9191.1486     -4521.5204     -5804.9731     -3829.491      -989.25854     -392.86726     -1224.5948    
    101000   326.94397     -3940.8355     -3380.4647     -3941.1534      0              6578.8514      17.927905      23.266234      21.872002      9123.1363      7736.2668      6807.7823      5192.5052      1243.5566      1541.5056      1389.1585    
    101500   295.98559     -3888.0777     -3380.7686     -3890.7554      0             -6872.2175      17.859008      23.176823      21.787948      9018.3602     -8031.4834     -8479.6734     -4105.4958      904.64505      322.20514     -1143.3341    
    102000   314.1096      -3917.9966     -3379.6235     -3924.5559      0             -2665.9561      18.053283      23.428946      22.024963      9315.8853     -3697.9638     -2871.5867     -1428.3177      99.7281       -862.82171     -1316.1284    
    102500   292.64426     -3903.6244     -3402.0421     -3909.1404      0             -6463.387       17.990001      23.346821      21.94776       9218.2642     -7524.9788     -6011.1494     -5854.0327      1518.5701     -133.79285     -991.72363    
    103000   301.29332     -3905.1629     -3388.7565     -3908.0575      0             -8602.3784      17.949857      23.294724      21.898784      9156.6914     -6894.358      -9849.5086     -9063.2685     -737.12456     -1193.2298     -2217.1629    
    103500   294.17429     -3932.2531     -3428.0484     -3933.5431      0              7401.0114      17.896695      23.225731      21.833926      9075.5727      7893.973       5575.5813      8733.4798      1366.3208      2800.4929      290.64118    
    104000   309.56769     -3911.8475     -3381.2591     -3912.8834      0              1219.9573      17.987608      23.343716      21.94484       9214.5863      124.53568      2388.3046      1147.0315     -517.34812     -62.145957      388.48672    
    104500   302.77853     -3939.268      -3420.3159     -3939.2701      0              3483.6068      17.950943      23.296133      21.900109      9158.3531      4571.82        3457.9517      2421.0487     -918.84142     -94.856412      337.45667    
    105000   310.79801     -3950.5678     -3417.8707     -3951.2606      0              4513.0597      17.898611      23.228218      21.836264      9078.4889      5343.1374      4825.2711      3370.7705      301.75773     -487.04279     -602.02217    
    105500   276.12403     -3945.4014     -3472.1342     -3946.7189      0              1082.4056      17.933813      23.273902      21.87921       9132.1587      1527.56        1568.5128      151.14393     -236.29109      183.54532      664.98528    
    106000   300.61368     -3900.9532     -3385.7116     -3903.3919      0             -8301.9731      17.988812      23.345278      21.946309      9216.4362     -10656.719     -10897.96      -3351.2405      8.0627472     -689.33855      2968.4663    
    106500   293.8156      -3933.7519     -3430.162      -3934.0914      0             -6401.5232      17.941967      23.284485      21.889158      9144.6219     -7093.1962     -7609.568      -4501.8053     -3432.2232     -85.022114     -113.3333     
    107000   294.50138     -3943.6446     -3438.8793     -3943.748       0             -6668.7992      18.025139      23.392421      21.990627      9272.3837     -8058.9692     -8301.4995     -3645.9289     -1483.0416     -269.34904      1343.7672    
    107500   298.93469     -3909.7429     -3397.3791     -3909.8491      0              4243.7254      17.902501      23.233267      21.84101       9084.4095      3683.5907      5434.1112      3613.4744     -438.96023     -406.26561      176.67306    
    108000   300.69785     -3926.0753     -3410.6895     -3926.081       0              152.63539      18.032937      23.402542      22.000141      9284.4236      463.48954      200.10712     -205.69051     -613.73658      575.26954      232.72169    
    108500   280.25091     -3914.6496     -3434.3091     -3914.6633      0              3136.3656      18.011397      23.374588      21.973863      9251.194       4000.3283      5835.4989     -426.73031      11.107645      949.47137      514.41645    
    109000   301.63253     -3929.8623     -3412.8745     -3930.101       0             -2587.7682      18.076877      23.459566      22.053748      9352.4579     -3083.8781     -2219.7925     -2459.634       1380.1392     -456.93098     -1016.8836    
    109500   276.95485     -3936.6854     -3461.9943     -3936.9027      0              3121.514       17.942221      23.284813      21.889468      9145.0094      1787.8887      4056.0022      3520.6512      773.12688      345.98591      99.037598    
    110000   298.43572     -3905.6447     -3394.1361     -3905.8991      0             -3056.9952      17.979017      23.332567      21.934359      9201.3897     -4621.4581     -1426.0855     -3123.4422     -351.57745     -427.73694      675.63432    
    110500   313.29131     -3903.9147     -3366.9441     -3904.0004      0              2036.5039      18.004649      23.365831      21.96563       9240.7998      646.11115      2607.6335      2855.7671     -539.44955      538.88926     -77.890602    
    111000   288.21561     -3884.2454     -3390.2538     -3884.6149      0             -2902.5506      18.00305       23.363756      21.963679      9238.3376     -3251.6492     -2156.3617     -3299.6409     -804.14932      2298.0663      336.92921    
    111500   334.60731     -3894.7209     -3321.2154     -3894.9784      0             -2477.4517      18.003781      23.364704      21.96457       9239.4624     -4664.8158     -2128.0337     -639.5056      -411.11524      549.56373      542.14901    
    112000   294.48314     -3872.111      -3367.377      -3872.1475      0              142.33403      17.911602      23.245078      21.852113      9098.2713      641.21222     -17.038001     -197.17211     -816.23626      76.392193      1041.1742    
    112500   311.44317     -3909.6766     -3375.8737     -3909.7247      0             -881.18888      17.890182      23.217279      21.82598       9065.6687     -466.74203     -2081.4622     -95.362406     -89.111102      263.8697       764.98319    
    113000   304.23549     -3925.4721     -3404.0229     -3926.04        0              539.62178      17.939459      23.28123       21.886098      9140.7874      1351.5013     -524.71898      792.08299      415.86141      613.7125       408.94465    
    113500   298.58161     -3951.6707     -3439.912      -3951.9252      0             -7545.6014      18.012625      23.376182      21.975361      9253.0859     -8313.3917     -7595.8057     -6727.6067     -886.43271      1008.0269      1032.8863    
    114000   296.33677     -3928.9718     -3421.0607     -3936.2088      0              11299.446      17.942124      23.284688      21.889349      9144.8614      12787.24       9708.7754      11402.323     -1676.3193      947.40356      2260.2245    
    114500   284.7158      -3930.6675     -3442.6744     -3935.2112      0             -6890.0376      18.018732      23.384108      21.982811      9262.5011     -8226.0803     -6367.8894     -6076.1432     -1916.8887     -1161.3643      284.82192    
    115000   300.40796     -3931.6306     -3416.7416     -3932.8455      0              5315.4366      18.030053      23.398799      21.996622      9279.9696      4867.0849      5982.4016      5096.8232      120.96288      1127.013       1007.8518    
    115500   285.27428     -3959.2402     -3470.2899     -3959.2711      0              3327.5746      17.949918      23.294802      21.898857      9156.7833      2697.0213      3253.0022      4032.7001     -64.576181      58.18955      -71.543791    
    116000   294.78273     -3948.0605     -3442.813      -3948.8923      0             -8949.6482      17.986621      23.342434      21.943635      9213.0685     -11648.376     -7085.7218     -8114.8461     -908.44197      271.1678      -548.96367    
    116500   288.51699     -3948.7641     -3454.2559     -3949.611       0              418.75716      17.97367       23.325627      21.927836      9193.1822      278.0861       1245.9151     -267.72977     -1206.3322     -407.29719     -927.74303    
    117000   285.61485     -3954.7832     -3465.2492     -3954.7877      0             -3826.3908      17.987364      23.343398      21.944542      9214.2102     -4361.4767     -4319.7385     -2797.9573     -583.30405      119.51071     -1035.0457    
    117500   297.67118     -3931.2364     -3421.0382     -3931.5462      0             -2478.7952      17.940596      23.282704      21.887485      9142.5245     -4498.0931     -861.53636     -2076.7561     -769.58473      323.65429      1288.9599    
    118000   293.25507     -3949.662      -3447.0329     -3949.8907      0              1632.9183      17.979787      23.333565      21.935298      9202.5708      2400.1523      1587.1209      911.48171      142.07254      562.2524       857.35182    
    118500   279.66895     -3902.6892     -3423.3462     -3903.3594      0             -3317.0088      18.037559      23.40854       22.005779      9291.5641     -4803.8376     -3737.0821     -1410.1066      441.16438     -644.46042      985.04969    
    119000   298.8185      -3927.3107     -3415.146      -3927.8206      0             -5138.157       18.097316      23.486091      22.078683      9384.2178     -3888.9595     -6799.6226     -4725.8888     -604.52718     -822.63814      1405.9564    
    119500   305.11548     -3930.9488     -3407.9913     -3932.2267      0             -3327.3307      18.084965      23.470061      22.063615      9365.0166     -4945.4081     -3133.734      -1902.8502      1490.6944      623.24546     -45.731622    
    120000   290.71691     -3960.4038     -3462.125      -3962.2152      0              3448.8621      18.016694      23.381462      21.980324      9259.3577      4311.5039      3264.7025      2770.3798      74.560419      465.82913     -139.75987    
    120500   297.71793     -3941.6917     -3431.4134     -3942.9073      0              3414.9723      17.986932      23.342838      21.944015      9213.5469      2559.1168      4362.281       3323.5192      52.116086     -322.83285     -866.86671    
    121000   308.78399     -3916.9053     -3387.6601     -3917.0216      0             -3296.1674      18.007616      23.369681      21.96925       9245.3688     -5092.7722     -3017.7622     -1777.9678     -2302.4757     -282.89824     -841.45426    
    121500   288.91541     -3922.4715     -3427.2804     -3923.0447      0             -5006.3745      18.016449      23.381144      21.980025      9258.9798     -4841.1461     -5820.6284     -4357.349      -922.12283      587.89398     -102.74486    
    122000   307.79455     -3930.8256     -3403.2763     -3932.0639      0             -1620.9673      17.963772      23.312782      21.91576       9178.0027     -1258.9549     -1250.1444     -2353.8027      1492.6049      319.4868      -368.47447    
    122500   307.70406     -3933.2216     -3405.8273     -3934.4074      0              180.4059       18.030623      23.399539      21.997318      9280.85        1530.2757     -1782.0884      793.03035     -258.8917       241.89702     -424.06361    
    123000   306.21233     -3937.4792     -3412.6418     -3939.1676      0              5693.3987      18.028804      23.397178      21.995099      9278.042       6613.4141      2840.0115      7626.7706      42.041039      2011.1032      853.49628    
    123500   304.01394     -3900.7491     -3379.6796     -3904.5113      0              2783.4814      17.964115      23.313227      21.916178      9178.5276      4426.5093      908.78538      3015.1496      1310.6363     -1629.7349     -1589.7848    
    124000   293.15496     -3898.6975     -3396.24       -3900.331       0             -7070.9378      18.03407       23.404012      22.001523      9286.174      -6372.3958     -9023.3661     -5817.0515     -1688.0439     -994.99038     -459.68921    
    124500   286.13445     -3932.9291     -3442.5045     -3938.6577      0             -8468.4762      18.004875      23.366124      21.965905      9241.1473     -9667.4031     -7778.964      -7959.0615      480.60009     -216.9966       1148.8651    
    125000   297.22259     -3945.1685     -3435.7391     -3946.3461      0             -3913.9891      17.907686      23.239995      21.847335      9092.3044     -2604.9597     -5059.3289     -4077.6788     -245.4656      -199.32215     -133.00379    
    125500   302.53527     -3979.5517     -3461.0166     -3979.9719      0              3876.5705      17.998799      23.358238      21.958492      9231.7942      2846.6551      4644.1541      4138.9023      1736.669       833.81726      655.23587    
    126000   303.04725     -3935.9154     -3416.5028     -3936.3248      0              3498.5625      18.041651      23.41385       22.010772      9297.8897      4345.901       3027.0506      3122.7358      849.60449      1156.6136     -102.76444    
    126500   293.47409     -3937.2383     -3434.2338     -3940.5019      0              1701.1758      18.095152      23.483283      22.076044      9380.8522      812.55673      2639.7744      1651.1964      1105.197      -961.8006      -79.116121    
    127000   294.85842     -3934.2542     -3428.877      -3935.3023      0             -4636.5077      18.057897      23.434935      22.030593      9323.0305     -6190.4462     -5023.0612     -2696.0159      2154.6139     -170.27902     -141.99638    
    127500   315.12737     -3928.1151     -3387.9975     -3928.3148      0             -772.36922      18.107153      23.498856      22.090684      9399.5279     -1732.0954     -773.39593      188.38364     -41.716663     -178.61236     -425.69624    
    128000   302.51571     -3940.8933     -3422.3917     -3943.6112      0             -7412.8167      18.027424      23.395388      21.993416      9275.9118     -7146.5187     -8323.6681     -6768.2632      1754.301       608.80221     -1984.2608    
    128500   309.52063     -3933.4452     -3402.9374     -3936.2972      0             -6888.994       18.071911      23.453121      22.047689      9344.7527     -7188.7319     -9790.6363     -3687.6137     -374.11851     -437.30001     -8.1674893    
    129000   308.4573      -3966.8143     -3438.129      -3968.0045      0             -783.88808      18.080304      23.464013      22.057928      9357.7778     -1762.927      -508.96774     -79.769462      406.25779      283.04361      437.66176    
    129500   293.82187     -3946.026      -3442.4254     -3947.8478      0              4843.5222      18.037555      23.408534      22.005774      9291.5579      5806.7961      4841.002       3882.7683      31.012923      84.484224      488.10141    
    130000   290.86473     -3926.6214     -3428.0892     -3926.7246      0             -2249.5297      18.027912      23.39602       21.99401       9276.6638     -2507.1537     -2259.9158     -1981.5196      872.78998     -484.2405      -1320.8089    
    130500   292.6056      -3917.199      -3415.683      -3918.0472      0             -608.39301      18.042665      23.415167      22.01201       9299.4583     -1044.3553     -823.34244      42.51865       1106.689      -95.298487     -224.74446    
    131000   314.39883     -3936.6337     -3397.7649     -3936.6337      0              3333.5751      18.042524      23.414983      22.011837      9299.2396      6617.8233      2632.4506      750.45148      502.16254     -59.288464      122.477      
    131500   310.62613     -3939.0155     -3406.6129     -3939.3486      0             -3030.1094      17.933199      23.273105      21.878461      9131.2215     -4768.0598     -2750.5868     -1571.6814      678.62702     -1290.577      -159.61683    
    132000   292.39894     -3895.8603     -3394.6985     -3899.2777      0             -1868.0873      18.10201       23.492183      22.08441       9391.5223     -3075.4246     -1295.2733     -1233.5639     -336.98798     -741.10714     -54.456482    
    132500   293.25905     -3899.1876     -3396.5517     -3899.463       0              687.74835      18.072506      23.453893      22.048415      9345.6758      597.40268      1094.0467      371.79571     -1893.2465     -1098.2912      310.30607    
    133000   298.38507     -3935.9923     -3424.5705     -3936.1765      0              36.516056      17.976836      23.329736      21.931698      9198.0414      626.76871     -1386.9543      869.73374     -957.27994     -986.31594      305.77585    
    133500   304.82596     -3915.0927     -3392.6314     -3915.0928      0             -2223.2799      18.053743      23.429543      22.025524      9316.5972     -2517.2646     -949.39897     -3203.1762     -280.58595     -95.466133     -916.61106    
    134000   306.79813     -3950.3489     -3424.5074     -3950.3971      0             -95.025351      18.037383      23.408312      22.005565      9291.2927     -1176.1331      415.2759       475.78117     -901.19583      486.52145     -139.31548    
    134500   295.13998     -3923.7018     -3417.842      -3923.7019      0             -2800.3352      17.976918      23.329842      21.931798      9198.1662     -2502.4522     -3478.2169     -2420.3366     -895.04278      587.31159     -378.4301     
    135000   302.62362     -3958.9758     -3440.2892     -3959.0082      0             -3148.3259      18.006734      23.368536      21.968173      9244.0094     -1583.9222     -4622.1021     -3238.9534      1089.2975      232.08901     -1093.5902    
    135500   286.14056     -3938.2542     -3447.819      -3938.7111      0             -1882.461       18.044775      23.417905      22.014583      9302.7203     -2451.4963     -1381.9814     -1813.9053     -1132.1988      1172.9789     -1055.012     
    136000   311.4887      -3978.7273     -3444.8463     -3978.8229      0             -4133.6492      17.995226      23.353601      21.954133      9226.2974     -4673.3012     -3703.4635     -4024.183      -556.44555     -496.55693     -844.74579    
    136500   310.57931     -3989.6688     -3457.3465     -3989.9725      0             -6206.4991      17.964693      23.313977      21.916883      9179.414      -5842.1967     -5418.1902     -7359.1105      486.54307     -896.08563     -2148.2362    
    137000   306.5981      -3955.0523     -3429.5536     -3956.0546      0              3780.3341      17.9491        23.293741      21.89786       9155.5324      3423.9062      5089.8694      2827.2268     -1512.1889      56.305675      39.291327    
    137500   303.6793      -3902.3808     -3381.8848     -3902.4154      0              379.18402      18.053143      23.428765      22.024793      9315.6691      993.56512      997.91041     -853.92346     -973.30665      1331.1567     -513.83268    
    138000   301.97662     -3929.6159     -3412.0383     -3929.7591      0              2894.922       18.000316      23.360208      21.960344      9234.1298      3562.0194      2963.3793      2159.3672      316.38984     -66.582772     -584.31025    
    138500   299.18599     -3920.8022     -3408.0077     -3921.1946      0             -2744.4588      18.023607      23.390434      21.988759      9270.0206     -3016.8963     -3129.153      -2087.3271     -254.74977      1720.2342      1084.1497    
    139000   316.33915     -3938.4577     -3396.2633     -3939.4902      0              748.86132      17.964953      23.314314      21.9172        9179.8121      1534.8139      1170.4979     -458.72788     -717.51542      296.2672       488.64759    
    139500   313.96482     -3912.4964     -3374.3715     -3912.6121      0              2963.9606      17.987773      23.343929      21.945041      9214.8386      2639.588       2625.3001      3626.9938     -359.37496      391.84649      249.11313    
    140000   310.53514     -3922.6356     -3390.389      -3922.6919      0              1578.8246      18.073362      23.455004      22.049459      9347.0034      1433.5211      1376.0905      1926.8621      615.83568     -97.801855     -583.77485    
    140500   316.05748     -3906.807      -3365.0953     -3907.2152      0             -902.88771      17.969988      23.320849      21.923344      9187.5338     -1870.5216     -1097.4659      259.32437      1568.3514      850.20807      207.53819    
    141000   297.4933      -3918.291      -3408.3977     -3918.6177      0              2221.2396      18.001083      23.361203      21.961279      9235.31        1564.4674      2905.0759      2194.1756      467.37868      434.07231     -444.25202    
    141500   293.98914     -3931.6359     -3427.7485     -3932.6387      0              1902.9373      18.05045       23.425269      22.021506      9311.4998      1898.7165      774.67955      3035.4158      509.44022      711.90696      122.73131    
    142000   295.30564     -3922.2812     -3416.1374     -3924.9914      0             -427.21282      18.115221      23.509327      22.100527      9412.0981     -1792.8014     -582.28766      1093.4506      467.21552      763.78296      509.9314     
    142500   298.74364     -3923.8408     -3411.8044     -3927.6553      0             -8326.3615      17.983153      23.337933      21.939404      9207.74       -9821.9051     -7153.448      -8003.7314      183.06707     -1626.1296      60.044892    
    143000   287.01039     -3963.4222     -3471.4962     -3966.2092      0             -3535.0426      18.042819      23.415366      22.012197      9299.6957     -4073.8619     -3925.0339     -2606.232      -1040.6964     -432.62892      96.714232    
    143500   311.45415     -3921.526      -3387.7042     -3923.3118      0             -3117.3307      18.029616      23.398232      21.996089      9279.2949     -1532.8343     -3252.3446     -4566.8131     -1085.258      -288.41767     -1363.4582    
    144000   289.42499     -3901.685      -3405.6205     -3901.853       0              264.04853      18.095151      23.483282      22.076043      9380.8509      1552.61        1150.9552     -1911.4196      807.17783      363.79277     -274.31376    
    144500   303.51111     -3901.0568     -3380.8491     -3903.0331      0              306.76218      17.991892      23.349275      21.950066      9221.1712      347.62578     -884.21721      1456.878      -312.55467     -1194.7791      95.721072    
    145000   280.26212     -3896.3461     -3415.9864     -3896.3484      0             -4280.8054      18.092306      23.479589      22.072571      9376.4257     -4909.6241     -3889.0791     -4043.7129     -1025.6958      756.0411      -1211.1031    
    145500   299.17544     -3881.6411     -3368.8646     -3881.835       0             -402.80817      18.05263       23.428099      22.024167      9314.8746     -733.67827     -301.21361     -173.53263      55.700217      866.95084     -1012.6035    
    146000   295.88859     -3917.0668     -3409.9239     -3917.0845      0             -144.83187      17.949566      23.294346      21.898428      9156.2452     -340.13619     -198.78758      104.42814     -553.64652      466.33837     -6.6255095    
    146500   293.80605     -3939.8006     -3436.2271     -3940.4926      0             -1766.6136      17.926978      23.265031      21.870871      9121.7213     -1629.804      -2969.3544     -700.68242     -875.36981     -593.17197      333.48827    
    147000   303.44764     -3925.5067     -3405.4078     -3925.5344      0             -1536.8599      18.028706      23.397051      21.994979      9277.89       -1277.9795     -463.45255     -2869.1477     -365.45541      14.824459     -25.453008    
    147500   299.59924     -3934.829      -3421.3261     -3935.7041      0              2058.8298      17.987632      23.343746      21.944868      9214.6218      1413.996       2925.7785      1836.7147     -272.12657     -250.09961     -362.54907    
    148000   289.69674     -3945.8791     -3449.3488     -3946.1356      0              2556.0491      17.977042      23.330003      21.931949      9198.3564      3434.0964      846.41397      3387.637       177.13049     -216.63947      659.38777    
    148500   324.80559     -3927.6407     -3370.935      -3928.3814      0              2239.4803      17.969429      23.320124      21.922662      9186.6762      2611.4564      1450.326       2656.6584     -53.43698      -195.71673     -155.81421    
    149000   293.22881     -3918.6185     -3416.0343     -3921.6764      0             -3600.9567      18.031039      23.400078      21.997825      9281.4923     -3939.1496     -4504.2491     -2359.4715     -412.52432      1062.0133     -332.26395    
    149500   302.45205     -3920.2584     -3401.8659     -3920.6149      0             -4619.6425      18.018868      23.384284      21.982977      9262.7107     -5412.5496     -6268.1195     -2178.2583     -1013.9915     -27.796847     -1377.0435    
    150000   288.91386     -3930.2066     -3435.0182     -3930.2158      0              2737.4722      18.080655      23.464469      22.058357      9358.3235      1843.9614      4916.1984      1452.2567      470.11898     -1692.3508      473.24783    
    150500   307.50233     -3970.8254     -3443.7769     -3973.2371      0              1788.1943      18.007323      23.369301      21.968892      9244.9177      1693.1912      2128.4519      1542.9398      877.93113     -595.41926      360.10501    
    151000   286.23869     -3914.8763     -3424.273      -3915.9408      0              58.838405      18.067884      23.447895      22.042776      9338.507      -675.28123      241.84705      609.9494       653.0885       1101.3637     -873.77608    
    151500   289.79094     -3952.7955     -3456.1037     -3954.2783      0             -103.13361      18.050127      23.424851      22.021113      9311.0009     -379.37179      561.80486     -491.8339      -205.59348     -416.469       -43.0123      
    152000   307.18244     -3913.3307     -3386.8305     -3915.2948      0             -195.70781      18.099087      23.48839       22.080844      9386.9735     -1453.4671     -125.6812       992.02484      1266.7942      1156.9192      245.38832    
    152500   304.19638     -3942.5225     -3421.1403     -3943.5516      0              3038.3156      17.993569      23.351451      21.952112      9223.7489      3680.1973      2059.6954      3375.054       95.175354      203.72159     -816.4153     
[...]
   7466000   303.82529     -3979.0606     -3458.3144     -3987.1837      0             -10515.291      18.023486      23.390277      21.988611      9269.8343     -11786.694     -11018.675     -8740.5055      551.46949      2014.2997      692.12094    
   7466500   296.12082     -3946.9335     -3439.3926     -3946.955       0              5948.9856      18.064018      23.442877      22.038059      9332.5131      5068.1193      5956.006       6822.8316      930.59935     -144.1614      -236.96206    
   7467000   302.08462     -3989.9978     -3472.2351     -3990.1323      0              9179.7829      17.942457      23.28512       21.889756      9145.3706      9075.843       11245.756      7217.7496      2133.2113     -57.037356      957.2856     
   7467500   300.99931     -3931.2531     -3415.3506     -3946.5929      0             -7700.2045      18.036213      23.406794      22.004138      9289.4855     -7976.7311     -7596.4255     -7527.4571     -1463.7666     -978.36577     -854.81729    
   7468000   302.95802     -3941.5388     -3422.2791     -3948.0904      0             -7326.1682      18.022895      23.38951       21.98789       9268.9224     -6957.2346     -7929.8983     -7091.3718     -911.23849     -701.87412      203.5135     
   7468500   307.48457     -3924.5178     -3397.4998     -3930.1552      0             -10014.14       17.924088      23.261281      21.867345      9117.3107     -10622.586     -10504.779     -8915.0536     -1697.7302     -295.77845      1540.8651    
   7469000   293.80266     -3940.5579     -3436.9902     -3940.9363      0              5485.25        18.102706      23.493086      22.08526       9392.6056      5092.6862      7223.3753      4139.6884      2090.155       1159.2983     -266.24113    
   7469500   302.88657     -3926.9915     -3407.8543     -3927.0095      0             -12183.836      18.076216      23.458707      22.052941      9351.4317     -10832.448     -11119.712     -14599.349     -1345.7965     -1381.4496     -488.21465    
   7470000   288.04041     -3907.4579     -3413.7665     -3909.9586      0             -8969.938       17.96375       23.312754      21.915733      9177.9692     -7248.8049     -10820.29      -8840.7196     -1030.2558      1278.0571      971.6628     
   7470500   290.39947     -3922.4458     -3424.7111     -3923.6919      0              9584.0654      18.023786      23.390666      21.988977      9270.2971      11481.308      7008.6824      10262.206     -1189.966       2470.6142     -341.09307    
   7471000   314.99258     -3908.8586     -3368.9721     -3911.5522      0             -4322.3359      18.147521      23.551246      22.139934      9462.5354     -5580.1855     -4429.3058     -2957.5166     -1054.2682      867.84435      430.45524    
   7471500   282.95673     -3923.8313     -3438.8531     -3936.5919      0             -8825.6063      17.947528      23.291701      21.895942      9153.1265     -7901.0361     -7513.1639     -11062.619     -1229.7263     -1985.2579     -1418.9843    
   7472000   308.76424     -3909.6662     -3380.4549     -3911.052       0             -12082.8        17.944123      23.287282      21.891788      9147.9179     -12533.388     -10225.873     -13489.141      234.23426     -1294.8517     -540.49016    
   7472500   290.25746     -3946.435      -3448.9437     -3965.8409      0             -7857.4723      17.960925      23.309087      21.912286      9173.6389     -7795.9387     -8054.4951     -7721.9832     -2940.3562      472.94081     -1167.0331    
   7473000   287.34424     -3937.319      -3444.8208     -3937.3224      0              8639.2725      18.05115       23.426178      22.022361      9312.5834      8742.652       9235.139       7940.0265      283.94673     -372.71694      948.16       
   7473500   295.33504     -3948.0593     -3441.8651     -3952.9799      0             -6752.6378      17.994699      23.352918      21.953491      9225.4881     -6456.256      -5358.1989     -8443.4585      917.20912      773.16884     -1351.0887    
   7474000   294.81634     -3931.7532     -3426.4481     -3938.31        0              6156.0488      18.070014      23.45066       22.045375      9341.8107      6568.1947      5006.8377      6893.114       542.12048      75.999457      216.60262    
   7474500   317.49369     -3963.9643     -3419.791      -3966.8178      0              3081.2098      18.004333      23.36542       21.965244      9240.3123      1141.4031      4221.6109      3880.6155      297.15985      1302.3812     -545.97013    
   7475000   291.16749     -3948.7714     -3449.7203     -3949.533       0             -10059.607      18.087991      23.473989      22.067307      9369.7187     -12121.851     -8428.1958     -9628.773       641.60999      780.58994     -1640.5852    
   7475500   305.6056      -3919.1357     -3395.3382     -3920.4925      0             -7048.886       18.006784      23.368601      21.968234      9244.087      -8541.2328     -6045.3135     -6560.1116     -631.88609     -160.96223     -1021.4134    
   7476000   277.12995     -3900.8434     -3425.8522     -3906.3652      0              5744.4007      18.087016      23.472724      22.066117      9368.2038      5960.3144      6316.9096      4955.9782     -899.30874      1672.5488      450.46576    
   7476500   309.70161     -3937.6319     -3406.8139     -3942.887       0              16737.922      17.977423      23.330498      21.932414      9198.9424      19029.577      14910.626      16273.563      31.61849      -1460.2153      3376.4198    
   7477000   292.34037     -3920.3522     -3419.2908     -3922.757       0             -6493.4855      18.021571      23.387791      21.986274      9266.8789     -6738.6502     -5941.4549     -6800.3515      494.28248     -1414.1993     -136.54766    
   7477500   313.76655     -3950.6705     -3412.8854     -3951.3909      0             -15054.877      18.067341      23.44719       22.042113      9337.6643     -16240.926     -18276.492     -10647.215      3078.4572     -2208.084      -3538.87      
   7478000   299.60893     -3898.536      -3385.0166     -3903.1616      0              15285.548      18.08749       23.473338      22.066695      9368.9398      14441.974      16338.717      15075.953      1179.6887      1827.607      -1961.9319    
   7478500   298.38266     -3924.0536     -3412.636      -3928.8693      0              1540.3765      18.065771      23.445153      22.040199      9335.2312      3115.0917      421.83057      1084.2073      327.74755      532.89893     -905.97195    
   7479000   296.9577      -3927.4123     -3418.4369     -3932.6022      0             -556.82781      18.12898       23.527184      22.117314      9433.5616     -1620.001       224.74577     -275.22823     -1129.0861     -156.89774     -1624.0701    
   7479500   295.67641     -3921.4785     -3414.6993     -3923.0372      0             -3631.4395      18.069276      23.449702      22.044475      9340.6661     -3446.4461     -3873.8699     -3574.0026     -255.53877     -974.06511      535.44358    
   7480000   295.26629     -3922.2973     -3416.221      -3925.6853      0              10266.352      18.102483      23.492797      22.084987      9392.2585      9909.6468      10428.022      10461.386     -2755.4773     -388.88205      2051.2005    
   7480500   314.24981     -3855.9118     -3317.2984     -3862.8121      0             -6240.8494      18.035928      23.406423      22.00379       9289.0444     -6163.9775     -6301.6773     -6256.8932      1643.5127     -347.3374      -308.03683    
   7481000   293.38483     -3924.7551     -3421.9036     -3928.9089      0             -8491.6129      17.973592      23.325526      21.92774       9193.0625     -7416.9125     -10208.359     -7849.5673      31.287948     -863.46485     -1687.2325    
   7481500   312.3437      -3921.2241     -3385.8777     -3923.4267      0             -4045.3135      17.990321      23.347236      21.948149      9218.7553     -4454.5667     -4495.7711     -3185.6026     -598.31501     -679.11871     -891.44245    
   7482000   306.91102     -3921.653      -3395.618      -3923.2051      0              5076.1988      18.01311       23.376811      21.975952      9253.8334      4747.9922      3960.5318      6520.0724     -54.458891      2326.1232     -1116.8638    
   7482500   308.40652     -3899.2175     -3370.6193     -3905.1238      0              13204.425      17.941013      23.283246      21.887994      9143.1625      13171.938      13353.93       13087.407      553.33501     -63.455133      1966.1837    
   7483000   314.57423     -3912.5912     -3373.4217     -3922.5001      0             -156.53436      17.985799      23.341368      21.942633      9211.8058      334.46001     -104.42105     -699.64206     -259.98025     -365.96974     -181.96504    
   7483500   292.02199     -3949.4531     -3448.9374     -3951.2951      0             -15530.689      17.987435      23.343491      21.944629      9214.3201     -15168.227     -15868.792     -15555.046      1107.5167      1160.4484      1449.9632    
   7484000   304.3829      -3916.8039     -3395.102      -3916.8159      0             -9976.2831      18.077007      23.459734      22.053906      9352.6593     -9476.8726     -9798.2821     -10653.694      2012.3233     -688.29272      648.11309    
   7484500   289.3766      -3928.0941     -3432.1125     -3928.0985      0             -6541.7791      17.953802      23.299843      21.903596      9162.7288     -5391.85       -6393.4119     -7840.0752     -1043.18       -2036.2049      303.8934     
   7485000   295.77341     -3942.1611     -3435.2156     -3948.2498      0              7459.7722      17.994025      23.352043      21.952668      9224.4507      7522.7281      5983.4366      8873.1519      254.29823     -1556.0886      252.18375    
   7485500   283.92742     -3872.6297     -3385.9878     -3878.8411      0              7774.2425      17.968999      23.319565      21.922137      9186.0161      8339.419       6221.6418      8761.6667     -724.1698      -1293.3381      2485.9686    
   7486000   304.71403     -3968.5417     -3446.2723     -3969.5825      0             -6421.4114      17.917429      23.25264       21.859222      9107.1534     -6456.8727     -6851.4644     -5955.8972     -134.33999      256.5796      -131.49707    
   7486500   315.64133     -3917.2689     -3376.2705     -3917.2789      0              6978.4257      17.961999      23.310481      21.913597      9175.2848      7886.9736      7245.6859      5802.6175     -864.68921     -573.92388      286.4706     
   7487000   301.79493     -3930.9958     -3413.7296     -3932.7078      0              10816.143      17.892269      23.219988      21.828527      9068.842       13428.681      11436.802      7582.946       1585.0328      1154.3573      186.97384    
   7487500   289.09422     -3919.7677     -3424.2701     -3920.1082      0              5142.6538      17.990463      23.34742       21.948323      9218.9739      4030.728       4117.2896      7279.9438      1445.0963     -1195.2525     -570.26966    
   7488000   318.00877     -3924.1081     -3379.0519     -3924.8293      0              6293.4613      17.96573       23.315322      21.918148      9181.0031      8169.1591      6278.389       4432.8358      299.43269      1575.4019     -1066.3094    
   7488500   301.0356      -3914.3113     -3398.3466     -3914.8553      0              6304.9303      17.950082      23.295016      21.899058      9157.0354      6733.1855      5903.8571      6277.7481      334.97247     -76.046533     -757.09174    
   7489000   308.13095     -3932.0024     -3403.8765     -3932.0518      0              3159.5424      17.993782      23.351728      21.952372      9224.0777      2908.6166      3875.9075      2694.1029     -100.60847     -6.3925608     -849.37678    
   7489500   319.24755     -3912.2019     -3365.0226     -3913.5076      0              3127.009       17.975646      23.328192      21.930247      9196.215       3384.8962      1823.2921      4172.8386     -39.301243      727.75408      243.91779    
   7490000   311.83744     -3921.0587     -3386.58       -3921.0881      0             -2472.9415      18.021068      23.387138      21.985661      9266.1029     -738.98805     -2605.3842     -4074.4523     -507.44597      34.500062     -497.93275    
   7490500   293.49379     -3995.6525     -3492.6142     -3996.0521      0             -1699.8653      17.90231       23.233019      21.840777      9084.1187     -2533.4541     -1457.9906     -1108.1513      60.454517      1818.7192      593.32432    
   7491000   288.86074     -3936.4538     -3441.3564     -3937.8782      0             -4332.0077      18.033798      23.403659      22.001192      9285.7542     -3354.457      -4426.3851     -5215.1809     -175.868        807.29479      564.46616    
   7491500   305.43902     -3967.0896     -3443.5776     -3967.1124      0              3437.7532      17.834699      23.145275      21.758291      8981.5838      3251.8516      4948.1153      2113.2928      561.93087      1104.8606     -598.04582    
   7492000   304.9548      -3970.6927     -3448.0106     -3971.2551      0              207.73397      17.974121      23.326212      21.928385      9193.8733     -868.90109      584.01384      908.08916      859.56365      711.87439      460.84195    
   7492500   306.30052     -3941.535      -3416.5463     -3943.4471      0             -6447.1697      18.09282       23.480257      22.073199      9377.226      -6841.0365     -6953.4579     -5547.0148     -122.77776      1289.7834     -172.92677    
   7493000   310.25338     -3944.4083     -3412.6446     -3946.8169      0              4435.0087      18.064453      23.443443      22.038591      9333.1885      6499.1925      3778.7503      3027.0832      1260.7313     -303.15241     -637.40333    
   7493500   311.20424     -3948.6598     -3415.2664     -3949.1445      0              3723.1194      17.987367      23.343403      21.944546      9214.2152      3222.5376      4415.8086      3531.0119     -341.46699     -38.789176     -229.41606    
   7494000   299.35685     -3957.1524     -3444.065      -3957.9929      0              3168.4523      18.054759      23.430862      22.026764      9318.1709      3178.2582      3969.1397      2357.9592      243.76682     -660.30311     -501.60366    
   7494500   306.0058      -3915.6792     -3391.1957     -3915.9986      0             -5935.2115      18.045613      23.418992      22.015605      9304.016      -5362.4839     -8308.0141     -4135.1364     -227.2058      -1346.6462     -248.58923    
   7495000   288.22564     -3939.1657     -3445.1568     -3940.2743      0              10412.554      18.036739      23.407476      22.004779      9290.2975      10855.022      11094.318      9288.3233     -2012.4657      1027.1984     -2186.6489    
   7495500   289.21353     -3958.106      -3462.4039     -3959.7373      0             -10873.776      18.041185      23.413246      22.010204      9297.1699     -11835.324     -11624.29      -9161.7141      1920.7342     -628.9216      -1315.3753    
   7496000   313.16801     -3933.5577     -3396.7984     -3933.6455      0             -5609.6805      18.05484       23.430967      22.026863      9318.2962     -5775.8716     -6253.1446     -4800.0253      105.59708      66.713696      521.29684    
   7496500   300.69127     -3957.7198     -3442.3452     -3961.1157      0              918.71713      18.1243        23.521109      22.111603      9426.2568      70.047199      2460.4272      225.67699     -1220.4362     -245.05072      97.134049    
   7497000   304.67668     -3921.7884     -3399.5829     -3926.3574      0              8420.8253      18.074401      23.456353      22.050727      9348.616       7306.4827      9550.5897      8405.4035      547.15037     -707.25586      173.54986    
   7497500   282.28404     -3915.4815     -3431.6564     -3919.9002      0              9364.12        18.10938       23.501747      22.093401      9402.9969      9425.0519      10262.255      8405.053      -3486.7172      696.26368     -935.72322    
   7498000   288.71227     -3907.994      -3413.151      -3908.0326      0              2505.6917      18.096709      23.485303      22.077943      9383.2732      2230.6426      2335.3728      2951.0598      376.26311      236.3582      -154.03585    
   7498500   295.9417      -3894.1555     -3386.9215     -3894.2021      0             -186.02712      17.965571      23.315117      21.917955      9180.7604      170.37439     -674.87603     -53.579723      541.69981     -217.16905     -1828.7052    
   7499000   305.47022     -3939.5762     -3416.0106     -3939.6033      0             -392.31238      17.974622      23.326863      21.928997      9194.6432      322.56876     -1175.9633     -323.54262     -88.815316     -569.91307     -1462.6413    
   7499500   299.824       -3933.4023     -3419.5142     -3933.4322      0             -1500.5103      18.159836      23.567227      22.154957      9481.8113     -1890.4006     -2088.7878     -522.34255      154.61974     -682.3709       795.74605    
   7500000   305.20934     -3935.0819     -3411.9635     -3935.1569      0              1390.6229      18.136548      23.537004      22.126546      9445.3799      1480.066       1228.6276      1463.1749     -615.4491       607.54669      941.55866    
Loop time of 28577.8 on 32 procs for 7500000 steps with 864 atoms

Performance: 45.350 ns/day, 0.529 hours/ns, 262.441 timesteps/s, 226.749 katom-step/s
99.3% CPU use with 32 MPI tasks x 1 OpenMP threads

MPI task timing breakdown:
Section |  min time  |  avg time  |  max time  |%varavg| %total
---------------------------------------------------------------
Pair    | 1476.9     | 1646.3     | 1828.9     | 296.5 |  5.76
Bond    | 3.8017     | 4.2684     | 5.1625     |  15.9 |  0.01
Kspace  | 1747.5     | 1945.6     | 2202.8     | 286.1 |  6.81
Neigh   | 120.09     | 129.09     | 144.48     |  59.7 |  0.45
Comm    | 747.83     | 868.26     | 944.34     | 167.0 |  3.04
Output  | 9.9283     | 9.9461     | 9.9683     |   0.3 |  0.03
Modify  | 23876      | 23901      | 23950      |  16.6 | 83.64
Other   |            | 72.94      |            |       |  0.26

Nlocal:             27 ave          41 max          15 min
Histogram: 1 3 4 7 4 5 2 1 3 2
Nghost:        2448.03 ave        2557 max        2305 min
Histogram: 1 1 2 5 3 6 4 4 2 4
Neighs:        6491.41 ave        9987 max        3551 min
Histogram: 1 3 6 4 7 4 0 3 2 2

Total # of neighbors = 207725
Ave neighs/atom = 240.42245
Ave special neighs/atom = 2
Neighbor list builds = 437029
Dangerous builds = 55
System init for write_data ...
PPPM initialization ...
  extracting TIP4P info from pair style
  using 12-bit tables for long-range coulomb (src/kspace.cpp:342)
  G vector (1/distance) = 0.32777394
  grid = 15 16 16
  stencil order = 5
  estimated absolute RMS force accuracy = 0.028833775
  estimated relative force accuracy = 8.6832057e-05
  using double precision KISS FFT
  3d grid and FFT values/proc = 1694 128
Generated 0 of 1 mixed pair_coeff terms from geometric mixing rule
WARNING: Not all mixed pair coeffs generated from mixing. Use write_data with 'pair ij' option to store all pair coeffs. (src/write_data.cpp:364)
System init for write_restart ...
PPPM initialization ...
  extracting TIP4P info from pair style
  using 12-bit tables for long-range coulomb (src/kspace.cpp:342)
  G vector (1/distance) = 0.32777394
  grid = 15 16 16
  stencil order = 5
  estimated absolute RMS force accuracy = 0.028833775
  estimated relative force accuracy = 8.6832057e-05
  using double precision KISS FFT
  3d grid and FFT values/proc = 1694 128
Generated 0 of 1 mixed pair_coeff terms from geometric mixing rule
Total wall time: 7:56:17
