LAMMPS data file via write_data, version 29 Aug 2024, timestep = 7500000, units = real

864 atoms
2 atom types
576 bonds
1 bond types
288 angles
1 angle types

0.11906621975782627 18.08850618023188 xlo xhi
0.1545201532007514 23.47465764678878 ylo yhi
0.14526050999694817 22.06793528999379 zlo zhi

Masses

1 1.00794
2 15.9994

Pair Coeffs # lj/cut/tip4p/long

1 0 0
2 0.21084 3.1668

Bond Coeffs # harmonic

1 450 0.9572

Angle Coeffs # harmonic

1 55 104.52

Atoms # full

763 1 2 -1.1794 6.409989057866342 4.472324151210304 4.809208834882231 0 1 1
764 1 1 0.5897 6.743461794798606 3.5831593664044674 4.92905320178821 0 1 1
821 1 1 0.5897 5.490874688360945 1.5843947516658643 2.0580563975086776 1 0 1
145 1 2 -1.1794 1.7762881676928366 5.591150089893766 2.2763750355143797 0 1 0
243 1 1 0.5897 7.78964721356252 2.4183679870767607 1.8788847040846235 -1 1 0
424 1 2 -1.1794 2.4756258626924406 3.9864030732161093 0.2984349468586741 0 1 1
242 1 1 0.5897 6.754957713550451 3.5111502627857307 1.7145289410200446 -1 1 0
820 1 2 -1.1794 4.7923852907385385 0.946949963777685 2.206230177423871 1 0 1
528 1 1 0.5897 6.0343374603078965 1.4920458471223763 5.51179901768004 0 2 0
241 1 2 -1.1794 6.949072625739856 2.6084276560566706 1.462356610434326 -1 1 0
69 1 1 0.5897 2.3620752647388574 5.306087949461426 4.249103795987456 0 0 0
512 1 1 0.5897 3.781295463932657 1.5801167480170089 5.282896400075764 1 2 1
704 1 1 0.5897 8.398632307240556 1.1326372466624093 5.375832290097742 -1 1 0
308 1 1 0.5897 6.192583360258178 5.782210588930946 1.5447629894192778 -2 1 1
765 1 1 0.5897 6.511029318891271 4.6423296338819595 3.872687808693146 0 1 1
307 1 2 -1.1794 6.727051212649441 5.184705499915523 2.0677465579474434 -2 1 1
147 1 1 0.5897 1.9122881093009076 4.967087580490916 1.5634741627558928 0 1 0
822 1 1 0.5897 4.603827224001111 1.0108477018966757 3.1424689258486276 1 0 1
511 1 2 -1.1794 4.479458869814041 1.0102174311136567 4.960465879518218 1 2 1
67 1 2 -1.1794 2.1007239358316845 5.052982940350884 5.134435996048428 0 0 0
309 1 1 0.5897 7.62054133462568 5.513712195814478 1.9697538115357347 -2 1 1
68 1 1 0.5897 1.2498176128553415 5.472181572824456 5.262544039520834 0 0 0
854 1 1 0.5897 2.194481195030325 3.3652268541947374 5.543163600277915 0 0 0
104 1 1 0.5897 0.7019614688404157 1.6107138356317845 5.141333962401808 1 2 0
335 1 1 0.5897 3.3635248447079276 1.2741113653063176 0.7567961731860269 0 1 0
2 1 1 0.5897 3.932770631296229 5.426544886918853 0.32082595049951657 -2 1 0
1 1 2 -1.1794 4.762930153820945 5.8898394465901 0.2095865363696088 -2 1 0
425 1 1 0.5897 2.552643606385825 3.042317305423534 0.16080685634407388 0 1 1
527 1 1 0.5897 6.8166278572775845 2.0502336422344136 6.681502724649928 0 2 0
645 1 1 0.5897 1.2966533555819937 2.2197575258253006 9.005447289608385 0 2 0
801 1 1 0.5897 6.883415266918151 5.552600304199698 9.569891354235864 0 0 1
799 1 2 -1.1794 6.107272852948285 5.141607316560027 9.950512236347024 0 0 1
31 1 2 -1.1794 4.399241093884919 1.623191623031474 9.850428629248912 1 2 -1
644 1 1 0.5897 1.8989974909351572 3.5923842371546377 8.79368300131789 0 2 0
441 1 1 0.5897 5.718721098566409 2.323378932517012 8.806691399331974 1 -1 0
800 1 1 0.5897 5.370521566990314 5.576629543111057 9.521400642907622 0 0 1
440 1 1 0.5897 6.579722593760713 3.566639782033052 8.875632949038959 1 -1 0
121 1 2 -1.1794 1.9571591072861532 5.312446181844472 9.632887324087905 1 0 -1
32 1 1 0.5897 4.257363005209689 0.7929444982894039 9.395739014106079 1 2 -1
33 1 1 0.5897 3.5824866943178595 2.1068623399181408 9.727308853051152 1 2 -1
855 1 1 0.5897 2.172130940406284 2.4094875643835296 6.7169765834198385 0 0 0
439 1 2 -1.1794 6.520547718918504 2.7093099198633532 8.454135554805857 1 -1 0
28 1 2 -1.1794 8.5269919839093 0.9981443350538257 9.602126758393105 0 0 0
29 1 1 0.5897 7.760490548770055 1.476258417953428 9.285795386443102 0 0 0
643 1 2 -1.1794 2.06733881116624 2.6613382811987814 8.648783356534961 0 2 0
123 1 1 0.5897 1.2249492220119613 5.481508208873346 9.0400371223542 1 0 -1
526 1 2 -1.1794 6.901452457216698 1.814202014266155 5.757775047886263 0 2 0
853 1 2 -1.1794 2.171858221365543 2.4332339738321775 5.760099810079209 0 0 0
190 1 2 -1.1794 0.15101082593552406 1.4784630340363074 9.937682537814755 0 1 0
192 1 1 0.5897 0.17392420536222433 0.6426580249021658 9.471754208031546 0 1 0
122 1 1 0.5897 2.70201468296323 5.755690008541438 9.22679674928145 1 0 -1
161 1 1 0.5897 5.051020640094087 5.594271022719807 5.802897075491263 0 -2 2
543 1 1 0.5897 7.907138193293266 5.615986461790326 5.902308478862426 -1 0 0
87 1 1 0.5897 3.283027614497281 2.1356718671808137 13.092389002024495 1 2 0
39 1 1 0.5897 4.698868418455701 1.300030009835106 11.555987353977686 1 1 0
217 1 2 -1.1794 2.430156277852862 2.0827898417814166 16.45727789003431 0 1 0
25 1 2 -1.1794 7.000969303753825 4.708638395346955 12.577891371254385 -1 1 0
273 1 1 0.5897 2.1107224317281337 5.079096265235244 11.346374157174203 0 0 0
818 1 1 0.5897 6.446546943269789 1.8534645019636575 13.218279075099618 1 1 0
218 1 1 0.5897 2.521496398497906 2.3229084627418777 15.535225407387447 0 1 0
86 1 1 0.5897 2.328472094042637 3.30586409451853 13.198423093606161 1 2 0
710 1 1 0.5897 0.6169041418019287 5.475731864593948 13.13586180127102 0 0 0
272 1 1 0.5897 2.917127323303444 5.683766933829099 12.475911353490195 0 0 0
37 1 2 -1.1794 4.763372439365761 1.2411965862021173 12.509167493950377 1 1 0
131 1 1 0.5897 5.35008799292064 5.691437689321223 13.202503637150242 0 1 0
271 1 2 -1.1794 2.1862004181357237 5.091182737038893 12.300490605297442 0 0 0
817 1 2 -1.1794 7.236841436429226 2.316221255944947 13.49659886852746 1 1 0
819 1 1 0.5897 7.2889598927739145 2.1568260664648626 14.438964241348987 1 0 0
26 1 1 0.5897 7.0700771237210605 3.859449476450409 13.014093200036097 -1 1 0
85 1 2 -1.1794 2.5639670201004807 2.480371735370014 13.62183932985786 1 2 0
27 1 1 0.5897 6.743990565466717 4.497212495134016 11.680429400149123 -1 1 0
168 1 1 0.5897 1.1152219058177695 1.310620488523893 12.960947173824364 -1 -1 0
539 1 1 0.5897 8.404789008238325 1.3917317173388335 12.616071680761026 0 0 0
38 1 1 0.5897 4.768152055854016 0.30162684000498957 12.691833953943753 1 1 0
540 1 1 0.5897 8.946245712860263 0.791732876902558 11.335994150816688 0 0 0
193 1 2 -1.1794 6.752541575510813 2.024062091335288 16.33168498219959 1 1 -1
265 1 2 -1.1794 4.857543403856623 5.7814728033467455 16.21734993748314 -1 1 -1
266 1 1 0.5897 4.64019983376991 5.946401505189226 15.299887512971232 -1 1 -1
166 1 2 -1.1794 0.28308054275941597 0.9125494180264937 12.705481385704672 -1 -1 0
167 1 1 0.5897 0.2899107672402913 0.935322676935899 11.748608871565406 -1 -1 0
297 1 1 0.5897 8.14718913773876 5.792473214090162 13.3265830456628 0 0 0
477 1 1 0.5897 7.743140332098131 5.092821213213524 16.9670256210379 0 0 -1
194 1 1 0.5897 6.416521313875573 2.8419971226517116 16.698083140596722 1 1 -1
56 1 1 0.5897 7.411872446326523 1.9611055539314388 21.765116717245053 1 -1 0
57 1 1 0.5897 7.5797241966656745 0.7430332426370639 20.88199672268715 1 -1 0
328 1 2 -1.1794 0.8723043928338713 4.675962083448776 20.04465208723433 1 1 -1
3 1 1 0.5897 5.285066156370479 5.31555181114585 21.57212798871641 -2 1 -1
287 1 1 0.5897 5.45905983067688 0.7392403736709042 16.95877600446189 1 1 0
699 1 1 0.5897 6.90630256844013 4.570136645401477 19.273673885309652 1 1 0
667 1 2 -1.1794 9.075666191855996 1.4426548543876654 17.49965364683291 0 0 0
534 1 1 0.5897 4.065268237611795 1.1492101449381367 20.178927712861558 1 3 0
329 1 1 0.5897 1.340823221023225 4.683118265171173 19.210015679270462 1 1 -1
708 1 1 0.5897 3.0179998760701374 4.893028594106596 17.417126465367055 -1 2 0
533 1 1 0.5897 5.559806720297609 1.2665098852823171 20.389531904367335 1 3 0
698 1 1 0.5897 7.1514046944909815 3.4903052346438352 20.30597355843405 1 1 0
55 1 2 -1.1794 7.423157553342602 1.6867109271110057 20.848187134660943 1 -1 0
330 1 1 0.5897 0.4236674202663481 5.520927131804417 20.07527268609582 1 1 -1
334 1 2 -1.1794 2.925958997090054 1.477197709518404 21.852753118186936 0 1 -1
532 1 2 -1.1794 4.904802982781352 0.8539951496592415 19.826518894582332 1 3 0
707 1 1 0.5897 2.066353364622961 3.729292988347108 17.23876367672544 -1 2 0
195 1 1 0.5897 7.589223501534347 1.8878310517096246 16.77619238592421 1 1 -1
706 1 2 -1.1794 2.0984172685248597 4.645590660757753 17.51359811082209 -1 2 0
288 1 1 0.5897 4.520870403773258 0.24096311889870808 18.037337298606275 1 1 0
426 1 1 0.5897 1.9805339341873316 4.299669558670007 21.464187149819875 0 0 0
72 1 1 0.5897 0.6822300973878547 1.4526854321654854 17.07316387838635 1 -1 -1
697 1 2 -1.1794 6.821721640474511 4.383621153475888 20.208680364267046 1 1 0
475 1 2 -1.1794 7.021166141942792 4.654737431301879 17.41760346929708 0 0 -1
286 1 2 -1.1794 4.654494362651302 0.23748994483593333 17.089542575946343 1 1 0
468 1 1 0.5897 8.099293521939092 5.692740620353833 20.348517391205537 0 0 -1
673 1 2 -1.1794 0.33666763958544926 0.39151979928617153 21.992078163625862 -1 -1 0
476 1 1 0.5897 6.231866632181575 5.042809384216516 17.039997138303054 0 0 -1
219 1 1 0.5897 3.1940407845658703 1.5355928305462856 16.639568927320973 0 1 0
336 1 1 0.5897 2.0347571385275485 1.146693478920337 21.96541924391117 0 1 -1
579 1 1 0.5897 4.968799625861903 9.51547149654352 3.433013621690558 0 -1 0
9 1 1 0.5897 7.416880495117714 11.528783243880357 2.4073105056346003 -1 0 0
53 1 1 0.5897 4.423219415137116 8.288724055135757 5.403074034684479 1 -1 1
146 1 1 0.5897 2.2030796707999105 6.393975365160345 1.9772135498402506 0 1 0
324 1 1 0.5897 0.22980823171144094 6.791549549321224 2.625226083309489 1 0 0
202 1 2 -1.1794 3.276444276851079 7.766235783196638 1.3780377793487528 1 0 0
54 1 1 0.5897 3.4606331166074598 9.438322572153405 5.611945215423928 1 -1 1
572 1 1 0.5897 0.3844496760582461 8.208080241564796 0.7356805921141942 1 -1 1
715 1 2 -1.1794 8.202173275476238 9.019798558831251 4.971406510881738 1 1 0
762 1 1 0.5897 1.140620431786006 10.608855808467816 3.2065193295739576 0 0 0
7 1 2 -1.1794 7.976045746137608 10.76355618267964 2.2733610277309704 -1 0 0
573 1 1 0.5897 1.8783377496668376 8.420603491459259 0.6139327468536677 1 -1 1
203 1 1 0.5897 3.7756507688302396 8.54224274295296 1.632577376467112 1 0 0
577 1 2 -1.1794 5.351563784300333 9.361049357665905 2.5694071061703028 0 -1 0
683 1 1 0.5897 3.346696071911373 11.529742698830853 1.7804527138153639 1 -1 1
578 1 1 0.5897 6.2800457115361406 9.566638696883235 2.678169736750193 0 -1 0
204 1 1 0.5897 3.9056202174637185 7.220015472015285 0.9069058057703768 1 0 0
760 1 2 -1.1794 1.9190601599059856 11.08648381616887 2.920013811000511 0 0 0
8 1 1 0.5897 8.864943182213075 11.117559719520294 2.246841153867152 -1 0 0
717 1 1 0.5897 8.38118002349956 9.368350179351944 4.098108213832583 1 1 0
52 1 2 -1.1794 4.299283341946852 9.217356653025199 5.2069467364714725 1 -1 1
761 1 1 0.5897 2.3752115607087467 11.310523002217815 3.731133371313065 0 0 0
571 1 2 -1.1794 1.0453585571941706 8.647089521833827 0.20037708912401736 1 -1 1
716 1 1 0.5897 8.996361764383977 9.206785992330536 5.471853764270761 1 1 0
515 1 1 0.5897 7.263674608303855 11.244495392772539 0.15532201008325686 1 -1 0
474 1 1 0.5897 3.510104721044841 9.499862217579206 9.714146466736292 0 0 0
115 1 2 -1.1794 2.1531736168182696 10.43388211718182 9.076378190773868 0 0 1
117 1 1 0.5897 2.2194222308191938 11.341963950237801 9.371634554220314 0 0 1
326 1 1 0.5897 2.2620953819776366 10.865489318668342 5.977108521049325 0 0 1
116 1 1 0.5897 1.3547472718496714 10.104952914372976 9.489245493243873 0 0 1
92 1 1 0.5897 7.41266988273651 9.545216122208753 9.62198304454352 1 0 0
472 1 2 -1.1794 4.205916643052333 8.887914418749794 9.95403049834838 0 0 0
91 1 2 -1.1794 6.680507237047935 10.08579946602232 9.325517677935856 1 0 0
473 1 1 0.5897 5.014179512128386 9.329311793188122 9.693150135007555 0 0 0
327 1 1 0.5897 2.139939252559346 10.15236893273233 7.306883311310123 0 0 1
93 1 1 0.5897 6.598459994588314 9.887971350384216 8.392610365591654 1 0 0
552 1 1 0.5897 7.11488029407053 9.706934634866007 5.975955503731922 0 0 0
658 1 2 -1.1794 8.525884951418206 6.03678994202601 8.885308099974527 1 0 -1
692 1 1 0.5897 4.052721663807086 7.2338739441388356 9.257610084689153 0 0 0
325 1 2 -1.1794 1.987703094110616 10.036460946201224 6.369030297754631 0 0 1
110 1 1 0.5897 8.696020252003157 7.686785967223295 9.77537460242222 1 1 0
109 1 2 -1.1794 8.787594312140108 8.610055954054598 10.010679056598018 1 1 0
693 1 1 0.5897 4.601099196496514 6.718061271270861 7.944223566585443 0 0 0
550 1 2 -1.1794 6.490898274317155 10.117004987785007 6.574826262374112 0 0 0
551 1 1 0.5897 5.631831151559298 9.881108832050028 6.224797810409595 0 0 0
691 1 2 -1.1794 4.165398633139482 6.432101101709535 8.747074472644984 0 0 0
541 1 2 -1.1794 8.613118401074649 6.205893365951772 6.1664569937073255 -1 0 0
660 1 1 0.5897 8.635606430036365 6.074043428445334 7.935174879641822 1 0 -1
111 1 1 0.5897 8.979162635224728 8.600848879887275 10.948442516811603 1 1 0
489 1 1 0.5897 6.965173649100782 11.7492668679217 5.899144313652871 0 0 0
119 1 1 0.5897 6.648325780951121 11.776568656128632 9.747667770614564 1 1 0
160 1 2 -1.1794 4.4868733488110575 6.356998363728574 5.930024293462444 0 -2 2
162 1 1 0.5897 3.5971519537275696 6.005594068451788 5.896940937468143 0 -2 2
542 1 1 0.5897 8.405513530925202 7.03588374195706 5.737292448006859 -1 0 0
632 1 1 0.5897 8.704851675926731 9.25836117379313 13.153004794477885 -2 0 0
616 1 2 -1.1794 7.137692055616531 9.817875621030836 13.723393416168024 0 -1 0
101 1 1 0.5897 4.268567258674988 8.974125114248547 11.843707260789273 -2 0 0
132 1 1 0.5897 4.904304225175069 7.136636718086027 13.135884997660629 0 1 0
618 1 1 0.5897 6.366409329288469 9.410073753440939 13.32968871486292 0 -1 0
332 1 1 0.5897 2.3278578126551484 9.775090531978892 14.995168648414252 -1 2 0
100 1 2 -1.1794 4.518185617011247 8.925246300703419 12.766463870573485 -2 0 0
333 1 1 0.5897 2.157785071285197 10.817306672735073 13.910456170356891 -1 2 0
331 1 2 -1.1794 2.237405649864733 9.873339422377663 14.047370293437115 -1 2 0
360 1 1 0.5897 7.108400316384778 9.77401418540434 15.674171393351905 2 -1 -1
617 1 1 0.5897 7.162754020395293 10.697441560663266 13.346679167179479 0 -1 0
589 1 2 -1.1794 9.028327924914782 6.339005958692075 16.363809896669164 -2 1 0
102 1 1 0.5897 3.706340601625925 9.095560045071572 13.244027257713654 -2 0 0
649 1 2 -1.1794 0.15848596267425327 6.372364911403085 16.00587870747085 -1 0 0
130 1 2 -1.1794 4.605981860714527 6.263454260401394 13.390325055510905 0 1 0
438 1 1 0.5897 0.6801874624951469 9.121123598930374 13.073865807351755 2 -1 0
591 1 1 0.5897 9.017330478010873 6.412886453472191 15.409556375936086 -2 1 0
295 1 2 -1.1794 8.844546130931006 6.32021069357196 13.715646997707063 0 0 0
296 1 1 0.5897 8.765398586727539 7.173869203671887 13.289986056879137 0 0 0
651 1 1 0.5897 0.8849999426164472 6.109633868932263 16.5709727925961 -1 0 0
466 1 2 -1.1794 8.855462563709233 6.2150440658355866 20.616055694822766 0 0 -1
781 1 2 -1.1794 4.148402520914012 7.518256486264428 19.889633024548058 1 0 -1
183 1 1 0.5897 2.3136914991611772 9.408119025383735 16.973202789615883 0 0 -2
782 1 1 0.5897 4.343313984147365 6.896564834805944 20.590841246735213 1 0 -1
339 1 1 0.5897 4.53744514731679 8.779816658739904 16.980674623290323 0 0 -1
245 1 1 0.5897 3.44858920655562 11.350975732173639 19.76244923391982 -1 0 0
35 1 1 0.5897 0.5807273556373821 8.362804123777567 18.391863242201982 0 0 -1
337 1 2 -1.1794 5.258177515838583 8.274229488598554 17.35630382226347 0 0 -1
338 1 1 0.5897 5.005036026875358 8.137259883134483 18.269178025806944 0 0 -1
304 1 2 -1.1794 8.660087774314334 8.967851004571513 20.058360157020342 0 0 -2
467 1 1 0.5897 8.593809676681682 7.120139999837871 20.447188945411142 0 0 -1
783 1 1 0.5897 3.9320694623864645 8.332441912060421 20.344038823125384 1 0 -1
772 1 2 -1.1794 4.195288640788916 10.24351164361229 20.999373047737837 0 0 -1
357 1 1 0.5897 0.7460826180242928 10.29628613951829 21.247145051272884 2 0 0
355 1 2 -1.1794 0.5152173054022589 11.094264602683555 20.771631743843564 2 0 0
773 1 1 0.5897 5.060788143795688 10.48952816262602 20.672945637745993 0 0 -1
305 1 1 0.5897 7.992209234281077 9.4642374204112 20.53135271537862 0 0 -2
356 1 1 0.5897 1.2565316281582979 11.24752619307496 20.185843873009357 2 0 0
514 1 2 -1.1794 7.035310189147396 11.017081010258885 21.176717238786452 1 -1 -1
383 1 1 0.5897 8.784935210607038 9.322493914841619 17.238772842024428 -1 0 0
462 1 1 0.5897 0.5763919070323946 7.708918390079204 20.43050994347436 0 0 0
626 1 1 0.5897 7.3263002664043375 11.512770629977464 17.151033569542946 1 -1 1
36 1 1 0.5897 0.6303733681450981 7.854412519001102 16.966785522685964 0 0 -1
359 1 1 0.5897 6.654210958167001 9.256435506908959 17.022349617731905 2 -1 -1
34 1 2 -1.1794 0.7721353735314198 8.63944714556335 17.49575146783402 0 0 -1
774 1 1 0.5897 3.918694491267069 10.98931438553987 21.531780338998534 0 0 -1
182 1 1 0.5897 2.938065346981513 10.758208795805006 16.691801915219443 1 0 -2
516 1 1 0.5897 7.544940063912399 11.62372863795529 20.63965060261732 1 -1 -1
181 1 2 -1.1794 3.114462902043134 9.8185122618782 16.646821505068843 0 0 -2
267 1 1 0.5897 4.731923127559078 6.626315900249589 16.649361593302423 -1 1 -1
358 1 2 -1.1794 7.290194116943341 9.841988678224707 16.611459424374157 2 -1 -1
590 1 1 0.5897 8.997092024820667 7.243658846466103 16.67492648725057 -2 1 0
94 1 2 -1.1794 2.798707047906559 12.395031106897246 5.274313950780761 0 -1 1
390 1 1 0.5897 6.347520432312788 13.548361105948022 2.312014026509072 0 0 1
385 1 2 -1.1794 3.3042725758105664 15.092446464979378 2.803225702118369 0 0 0
386 1 1 0.5897 3.8359786955261455 15.651301218972897 2.2365223189778733 0 0 0
548 1 1 0.5897 7.246771240619852 15.567349380076937 1.8975348931764169 0 -1 0
688 1 2 -1.1794 4.575992898821306 16.8439053370034 0.9620648212044793 -1 0 1
682 1 2 -1.1794 3.9561740883347283 12.04972795565575 1.2566845341369668 1 -1 1
313 1 2 -1.1794 0.4898452880684963 15.110861834014978 2.4503719374556354 1 0 1
446 1 1 0.5897 4.047295569210867 15.539828101208007 4.525055478660664 0 0 1
389 1 1 0.5897 6.452169770375206 13.088556838810018 3.750548122433447 0 0 0
549 1 1 0.5897 5.970521605955412 15.601694712377078 1.0840405269084141 0 -1 0
315 1 1 0.5897 1.4462495068476828 15.132893657349314 2.481832787357941 1 0 1
690 1 1 0.5897 3.989581898331395 17.2944925253598 0.3543862755141529 -1 0 1
596 1 1 0.5897 4.862905124144087 17.41152485773909 3.9453332260882696 2 0 0
684 1 1 0.5897 4.767326769060188 12.05255119329087 1.7648234464312578 1 -1 1
388 1 2 -1.1794 6.189533979082969 12.7933519241027 2.8787356761297365 0 0 1
779 1 1 0.5897 8.396815536408647 17.393363117502517 3.391492398971592 -1 0 1
547 1 2 -1.1794 6.669107540761689 15.014058201477756 1.371838205488945 0 -1 0
778 1 2 -1.1794 7.893591189554537 17.265896640674235 2.587316752110283 -1 0 1
314 1 1 0.5897 0.2830795850695047 14.284840201661689 2.013198710116117 1 0 1
387 1 1 0.5897 3.5506702641720813 14.200140162324978 2.5597918640786856 0 0 0
689 1 1 0.5897 5.032404658922979 17.54840204658789 1.4220134721733029 -1 0 1
811 1 2 -1.1794 0.45038099385459657 12.742686681395888 1.0892949859429044 -1 -1 0
812 1 1 0.5897 1.0031584051350086 12.142958647062219 1.590242215080215 -1 -1 0
445 1 2 -1.1794 4.310325961466425 16.13876571983339 5.223817727867705 0 0 1
96 1 1 0.5897 1.9465248256024417 12.780022686002212 5.478641256438069 0 -1 1
487 1 2 -1.1794 7.05094547982616 12.593420938154994 5.45616586324569 0 0 0
813 1 1 0.5897 0.30843774759026177 12.297219496253813 0.25407714400502485 -1 -1 0
401 1 1 0.5897 0.7983866221856449 16.594064701236746 5.546285685863184 1 -1 1
402 1 1 0.5897 0.2258916874251864 15.918269209072838 4.318553733544334 1 -1 1
447 1 1 0.5897 3.5264082326445636 16.658128396977084 5.402465857394631 1 0 1
766 1 2 -1.1794 2.0583956770411667 12.994046312540615 10.094525266623736 3 0 0
642 1 1 0.5897 5.671466031374349 13.328249424888208 6.218831539951247 0 0 0
640 1 2 -1.1794 4.86051908297402 13.655513835380223 6.607980189240207 0 0 0
641 1 1 0.5897 4.837815466477665 14.582654079062134 6.371204181997733 0 0 0
253 1 2 -1.1794 3.9321085916165472 16.23655218279385 9.979702010608007 -1 0 0
187 1 2 -1.1794 4.4120525443725676 13.717132303200303 9.315022198917852 0 1 0
188 1 1 0.5897 4.514884638051664 13.660754475351563 8.365059631515003 0 1 0
139 1 2 -1.1794 6.006527965475304 17.555663003532565 9.134876811568734 0 -1 0
189 1 1 0.5897 5.233690395493887 13.373893778808984 9.666138290785124 0 1 0
140 1 1 0.5897 6.7599607637538535 16.988407750473513 9.298380656011677 0 -1 0
120 1 1 0.5897 7.495851653351194 13.01820022095169 9.569283096770254 1 1 0
255 1 1 0.5897 4.13842646372684 15.321503551495507 9.789179759849924 -1 0 0
419 1 1 0.5897 0.39548003387907193 13.079245480611057 9.316705452333547 1 0 0
254 1 1 0.5897 3.9221862186059697 16.286324713859592 10.935522218994416 -1 0 0
478 1 2 -1.1794 8.545534873404588 16.07034749206648 9.739389546416655 -1 0 -1
768 1 1 0.5897 2.898893372246552 13.4196506766952 9.925397951948138 3 0 0
141 1 1 0.5897 5.257919032973497 17.063350172319183 9.471620671340615 0 -1 0
560 1 1 0.5897 5.752404561092068 17.093468487808607 6.170139216105368 0 0 0
118 1 2 -1.1794 6.765346894386364 12.6671045575764 10.078475583435866 1 1 0
662 1 1 0.5897 2.643562686893549 17.533119784896883 9.369470063265872 -1 0 1
6 1 1 0.5897 0.2735506775189811 14.52265333773215 6.060339795130858 0 0 1
480 1 1 0.5897 8.85486142348654 15.165242780615344 9.775012104239293 -1 0 -1
787 1 2 -1.1794 2.187801556855437 17.5827566864834 5.94481178984514 1 1 0
4 1 2 -1.1794 0.3331971496077628 13.568220436995098 6.1013372123023215 0 0 1
559 1 2 -1.1794 6.657558347865456 17.360144251036765 6.330501140643719 0 0 0
561 1 1 0.5897 6.730896203197908 17.399110667242887 7.284054477401054 0 0 0
767 1 1 0.5897 1.9265500283909445 13.089525954007836 11.037755988063847 3 0 0
488 1 1 0.5897 7.9133427512256755 12.915479445019226 5.718319634763361 0 0 0
95 1 1 0.5897 3.4306959676241813 12.964353471377155 5.713193447168612 1 -1 1
430 1 2 -1.1794 1.8234376790528337 12.379966824412017 13.387451194542738 0 1 0
431 1 1 0.5897 2.518967213646049 12.994448534537284 13.62160376121013 0 1 0
164 1 1 0.5897 4.500379876286973 13.887182263630333 14.732158196306877 0 1 0
432 1 1 0.5897 1.014051433448824 12.876740704570198 13.506983184647153 0 1 0
280 1 2 -1.1794 6.6185167998358585 17.301559632247397 16.23048320685577 1 -1 -1
562 1 2 -1.1794 3.9258723553883277 16.246650395933735 12.828760722825377 3 -1 0
839 1 1 0.5897 8.612091201080748 13.337661501406304 13.419979313175917 1 0 -1
723 1 1 0.5897 0.9441640340478101 17.154643826426017 13.599635896422516 1 -1 0
810 1 1 0.5897 6.176570876925473 12.636146273255141 13.039095225081425 0 0 1
165 1 1 0.5897 4.333401503147045 14.73696560885398 13.490481077446193 0 1 0
808 1 2 -1.1794 7.05896812989649 12.452298599914105 12.717007562566609 0 0 1
163 1 2 -1.1794 4.293431660659277 13.831846954535392 13.799262099606343 0 1 0
809 1 1 0.5897 7.004791958725016 12.597597399859804 11.77247718165392 0 0 1
564 1 1 0.5897 3.3207741865969487 16.80385433228708 13.318214018590016 3 -1 0
722 1 1 0.5897 0.4135254535298618 16.873020097229443 12.21008658411884 1 -1 0
427 1 2 -1.1794 8.827707836308594 16.401341243966918 12.451809823921002 0 -1 0
563 1 1 0.5897 4.793259899981765 16.594343327197286 13.035961477575535 3 -1 0
258 1 1 0.5897 7.189330617328297 16.88750545195378 13.156085123896379 1 -1 0
733 1 2 -1.1794 4.89233448677135 13.745670362919553 16.449881646483508 3 -1 0
257 1 1 0.5897 6.443317729567937 17.01144242467103 14.46748301398513 1 -1 0
256 1 2 -1.1794 6.387092737882542 17.241279563892782 13.54003477441732 1 -1 0
721 1 2 -1.1794 0.2688981715649139 16.662659235405066 13.13258677438234 1 -1 0
518 1 1 0.5897 3.0333397816113448 13.181772519987831 16.469002756010198 1 0 1
428 1 1 0.5897 8.798487933452343 16.45964784653229 11.496865515718676 0 -1 0
735 1 1 0.5897 5.607652691717071 13.122717833338887 16.578033152737724 3 -1 0
391 1 2 -1.1794 0.9464186724365726 15.011006588583042 20.838373600708167 1 1 0
126 1 1 0.5897 4.43023299827396 14.045582351642182 20.9204974567596 -2 -1 0
625 1 2 -1.1794 7.211042619501353 12.4466683350925 17.326327445039365 1 -1 1
393 1 1 0.5897 1.8735706551682174 14.836283002960917 20.99975234359272 1 1 0
268 1 2 -1.1794 5.598316151890086 15.82137445132941 18.33638239990952 1 1 0
627 1 1 0.5897 7.9164032742711665 12.871319049104674 16.83815912088324 1 -1 1
281 1 1 0.5897 6.301237458586411 16.772490993310768 16.962333260960015 1 -1 -1
246 1 1 0.5897 3.058374168671081 12.810141930078265 19.660838445855855 -1 0 0
519 1 1 0.5897 2.5909525420192323 12.398689245766509 17.686721052835136 1 0 1
846 1 1 0.5897 6.597013017941009 14.74833736104766 21.503555547421144 0 0 -1
796 1 2 -1.1794 8.930268668353763 17.221071882600427 19.723184774191242 -1 -1 0
362 1 1 0.5897 8.243734666476602 12.920136890338922 18.802633475373167 0 0 0
517 1 2 -1.1794 2.401555459610313 12.52279692348884 16.756720518471752 1 0 1
844 1 2 -1.1794 6.207454905968385 14.53273884691002 20.656239298959935 0 0 -1
581 1 1 0.5897 0.9958306182329915 13.998855349535901 17.145515621523312 -2 1 0
269 1 1 0.5897 6.147074831666318 15.602865658844259 19.089569965416903 1 1 0
845 1 1 0.5897 6.902388481398039 14.076590587813593 20.181710475220395 0 0 -1
244 1 2 -1.1794 2.850783886910165 11.944783242597572 19.308361737876865 -1 0 0
696 1 1 0.5897 0.5464870351503943 16.594771248904692 20.134417787783626 2 1 -1
221 1 1 0.5897 0.20654638054771723 16.46279516001912 16.8901389797804 1 0 0
734 1 1 0.5897 5.020271125296403 14.402163488765526 17.134595428423207 3 -1 0
392 1 1 0.5897 0.4838636232419757 14.418573940116154 21.431036061628134 1 1 0
361 1 2 -1.1794 8.237032691311333 13.018275979837874 19.754740180478837 0 0 0
124 1 2 -1.1794 3.487579441336444 14.001804925762137 21.08070889938019 -2 -1 0
270 1 1 0.5897 5.053530588466603 16.54784885937407 18.639082493291344 1 1 0
797 1 1 0.5897 8.863790655717828 17.16021936272231 18.770265880005713 -1 -1 0
694 1 2 -1.1794 0.43759669177087634 17.50538219168095 19.860346279468757 2 1 -1
125 1 1 0.5897 3.4008657794022454 13.439822127292656 21.850667444632503 -2 -1 0
580 1 2 -1.1794 0.227960389981681 14.505368108864099 16.880933102797677 -2 1 0
695 1 1 0.5897 0.1534945963742737 17.449080382762084 18.94804114578512 2 1 -1
521 1 1 0.5897 8.357983631378511 16.870336482785817 16.753721060851085 -2 -2 0
556 1 2 -1.1794 4.696193439031799 21.646079582869476 1.2109801418183606 0 -1 1
77 1 1 0.5897 6.677154929592868 20.81840418069497 3.591519849009877 2 0 0
458 1 1 0.5897 0.9272552002209807 20.24754793289152 3.8205542906710965 -1 -1 1
816 1 1 0.5897 8.106671553160087 22.221334306521484 2.3674314327726886 1 0 1
557 1 1 0.5897 4.695704816837732 22.577016551429182 1.433531561922965 0 -1 1
76 1 2 -1.1794 6.84982611369642 20.83127296909982 2.650138206280203 2 0 0
78 1 1 0.5897 5.9955962252142 20.997802822099544 2.2517195366683884 2 0 0
595 1 2 -1.1794 5.0319929648039174 18.192530232317907 3.4184325598910417 1 0 0
457 1 2 -1.1794 0.48081585009033995 20.284269616543796 2.9746702437109422 -1 -1 1
173 1 1 0.5897 8.3456973975556 17.673162285632912 5.268135983324958 0 0 0
464 1 1 0.5897 2.922432114626872 20.886218343875456 0.9012405618117041 0 -2 1
597 1 1 0.5897 5.9703386103946565 18.158166071760455 3.232668638304123 1 0 0
465 1 1 0.5897 1.664326731426193 20.388074584936717 1.5800515939882753 0 -2 1
250 1 2 -1.1794 1.8923010275467493 20.267841532957817 5.327498918557252 -1 0 1
513 1 1 0.5897 4.284725250000394 23.473716702321653 5.340511253743777 1 1 1
463 1 2 -1.1794 2.109743132592338 20.409309736578862 0.7330969091244418 0 -2 1
444 1 1 0.5897 7.047647137122661 20.902028194138893 5.448598252814538 1 0 1
442 1 2 -1.1794 6.235298669494325 20.406305708419396 5.345971015047896 1 0 1
780 1 1 0.5897 8.206088913753566 17.951847156211187 1.997407508866111 -1 0 1
570 1 1 0.5897 8.204309088071174 19.86577301563348 1.5400673942542036 -3 0 2
568 1 2 -1.1794 8.579661061191942 19.252490300456316 0.9082612143429537 -3 0 2
814 1 2 -1.1794 8.895372481592718 22.477720061858477 1.8895292826824608 1 0 1
459 1 1 0.5897 0.20775084124233964 21.19745116339209 2.8868818545418353 -1 -1 1
558 1 1 0.5897 5.071684912612805 21.60983842697462 0.3312807994319861 0 -1 1
252 1 1 0.5897 2.6795796825092353 20.780404792099972 5.510915833974366 -1 0 1
831 1 1 0.5897 8.698746960949308 22.337124629136504 5.576484845195131 1 -1 0
789 1 1 0.5897 2.0400743101997865 18.459815730824737 5.5910855891545514 1 1 0
13 1 2 -1.1794 4.477666647928991 21.885400193820303 8.7120657938222 0 -2 0
807 1 1 0.5897 2.05915165592687 19.90022114583099 9.454082439242887 1 0 0
14 1 1 0.5897 3.9232247669977336 21.292097419608886 9.218777767280908 0 -2 0
805 1 2 -1.1794 2.1295846460801204 20.79242667605471 9.793482205589388 1 0 0
15 1 1 0.5897 5.366930788348148 21.559245225773367 8.849883711518316 0 -2 0
603 1 1 0.5897 4.120345607817668 21.846688878373165 6.944605762868636 0 0 1
601 1 2 -1.1794 4.0703510404765595 21.849403333303655 5.988743180113329 0 0 1
666 1 1 0.5897 8.659280530351966 22.55599666722248 9.1552909927289 0 0 1
665 1 1 0.5897 8.051795851010576 21.17172552759827 9.074525465096821 0 0 1
661 1 2 -1.1794 1.9180725361535784 17.99807181220573 8.952756305830443 -1 0 1
830 1 1 0.5897 8.800878305972688 21.775172191835438 6.97844877011638 1 -1 0
829 1 2 -1.1794 8.686562761219985 21.51394487861686 6.064741835412395 1 -1 0
484 1 2 -1.1794 6.5681194017443385 20.27478375185639 9.417924036694561 1 0 0
486 1 1 0.5897 6.430237803665876 19.346785911852223 9.228251066801477 1 0 0
788 1 1 0.5897 2.378881992688241 17.726818751296157 6.87158668906578 1 1 0
485 1 1 0.5897 6.8136184706152845 20.296787119929853 10.342800004511574 1 0 0
806 1 1 0.5897 2.2254888109861266 20.682453755704792 10.739469942775367 1 0 0
664 1 2 -1.1794 8.783089817318311 21.697489397205125 8.750546707403112 0 0 1
251 1 1 0.5897 1.2137163378979445 20.667218627592916 5.871746397031556 -1 0 1
663 1 1 0.5897 1.1445522504280619 17.729233259361358 9.448282105257034 -1 0 1
602 1 1 0.5897 4.700654482952865 21.18368916533391 5.713569908500301 0 0 0