LAMMPS (29 Aug 2024)
Running on 1 partitions of processors
