LAMMPS (29 Aug 2024)
Processor partition = 0
  using 1 OpenMP thread(s) per MPI task
Reading data file ...
  orthogonal box = (0 0 0) to (18.207572 23.629178 22.213196)
  2 by 4 by 4 MPI processor grid
  reading atoms ...
  864 atoms
  reading velocities ...
  864 velocities
  scanning bonds ...
  2 = max bonds/atom
  scanning angles ...
  1 = max angles/atom
  orthogonal box = (0 0 0) to (18.207572 23.629178 22.213196)
  2 by 4 by 4 MPI processor grid
  reading bonds ...
  576 bonds
  reading angles ...
  288 angles
Finding 1-2 1-3 1-4 neighbors ...
  special bond factors lj:    0        0        0       
  special bond factors coul:  0        0        0       
     2 = max # of 1-2 neighbors
     1 = max # of 1-3 neighbors
     1 = max # of 1-4 neighbors
     2 = max # of special neighbors
  special bonds CPU = 0.001 seconds
  read_data CPU = 0.117 seconds
288 atoms in group ox
576 atoms in group hy
Setting atom values ...
  288 settings made for charge
Setting atom values ...
  576 settings made for charge
Finding SHAKE clusters ...
       0 = # of size 2 clusters
       0 = # of size 3 clusters
       0 = # of size 4 clusters
     288 = # of frozen angles
  find clusters CPU = 0.000 seconds
PPPM initialization ...
  extracting TIP4P info from pair style
  using 12-bit tables for long-range coulomb (src/kspace.cpp:342)
  G vector (1/distance) = 0.33192612
  grid = 15 18 16
  stencil order = 5
  estimated absolute RMS force accuracy = 0.023518172
  estimated relative force accuracy = 7.0824276e-05
  using double precision KISS FFT
  3d grid and FFT values/proc = 1694 180
WARNING: Communication cutoff 0 is shorter than a bond length based estimate of 3.4358. This may lead to errors. (src/comm.cpp:731)
WARNING: Increasing communication cutoff to 11.6149 for TIP4P pair style (src/KSPACE/pair_lj_cut_tip4p_long.cpp:497)
Generated 0 of 1 mixed pair_coeff terms from geometric mixing rule
Neighbor list info ...
  update: every = 1 steps, delay = 7 steps, check = yes
  max neighbors/atom: 2000, page size: 100000
  master list distance cutoff = 10.8154
  ghost atom cutoff = 11.6149
  binsize = 5.4077, bins = 4 5 5
  1 neighbor lists, perpetual/occasional/extra = 1 0 0
  (1) pair lj/cut/tip4p/long, perpetual
      attributes: half, newton on
      pair build: half/bin/newton
      stencil: half/bin/3d
      bin: standard
Setting up Verlet run ...
  Unit style    : real
  Current step  : 0
  Time step     : 2
Per MPI rank memory allocation (min/avg/max) = 8.176 | 8.183 | 8.191 Mbytes
   Step          Temp          PotEng         TotEng         E_pair         E_mol          Press            Lx             Ly             Lz           Volume          Pxx            Pyy            Pzz            Pxy            Pxz            Pyz      
         0   300           -5398.2284     -4884.0386     -5398.2284      0             -7250.7105      18.207572      23.629178      22.213196      9556.7825     -6530.1066     -6105.5831     -9116.4419     -2534.3347      134.02881      799.28573    
      1000   321.09776     -4196.6837     -3646.3331     -4202.3369      0              1120.3186      18.208696      23.630635      22.214566      9558.5511      944.18492     -152.74825      2569.5192      869.78152      386.0077      -344.38621    
      2000   297.84958     -4161.3011     -3650.7971     -4161.4903      0              4.8287147      18.249891      23.684097      22.264824      9623.5733     -446.32474     -864.70322      1325.5141      672.97        -508.18496     -832.28236    
      3000   294.16579     -4113.613      -3609.4228     -4115.0772      0              42.537066      18.274913      23.716571      22.295351      9663.2126      930.9725       381.52518     -1184.8865     -492.82655      104.22656      748.45425    
      4000   302.03445     -4101.7307     -3584.054      -4101.7422      0             -496.22822      18.23656       23.666797      22.24856       9602.5        -169.97861     -1063.1029     -255.60319      764.15424      578.63568     -1151.9862    
      5000   301.36126     -4124.0168     -3607.4939     -4124.2063      0             -1242.2019      18.173082      23.584417      22.171117      9502.5748     -1719.5033      11.430512     -2018.5329     -925.03253      165.79776      34.151511    
      6000   298.48169     -4110.5977     -3599.0103     -4113.8735      0              3688.7122      18.14687       23.550401      22.139139      9461.517       4800.5413      2034.5239      4231.0714      491.95934      105.29034     -1183.5321    
      7000   295.11082     -4051.888      -3546.0781     -4052.6639      0             -1677.7506      18.209207      23.631299      22.21519       9559.3562     -2758.3129     -1069.1011     -1205.8378     -418.48726      429.00541      966.24498    
      8000   295.58273     -4073.2723     -3566.6537     -4073.7513      0              723.96753      18.144807      23.547723      22.136622      9458.2902     -848.19553      1229.7822      1790.3159     -251.33733      21.576978     -27.525706    
      9000   287.9417      -4052.4935     -3558.9713     -4052.8941      0              707.02017      18.198776      23.617762      22.202464      9542.9374      2748.1672     -1134.3435      507.23681     -32.624151      86.959919     -222.451      
     10000   297.35812     -4060.9612     -3551.2996     -4061.2229      0             -542.33806      18.18458       23.599339      22.185145      9520.6237     -301.1129      -47.466855     -1278.4344      845.87945      749.56481     -277.92935    
     11000   320.20472     -4045.034      -3496.2141     -4047.3687      0              2183.0528      18.224995      23.651789      22.234452      9584.2438      1589.8248      3422.8386      1536.4949     -327.82985     -609.87882     -189.02406    
     12000   298.77772     -4115.8565     -3603.7617     -4117.049       0              529.09537      18.149233      23.553467      22.142022      9465.2129     -185.68815      155.58006      1617.3942     -460.53146     -461.61158     -9.4144257    
     13000   293.62158     -4101.0379     -3597.7806     -4105.1673      0              4141.2357      18.103263      23.493809      22.085939      9393.4721      3604.8679      4580.6224      4238.2169      392.00144      156.85165     -394.0439     
     14000   309.76378     -4069.5192     -3538.5946     -4072.0202      0              354.45639      18.19947       23.618663      22.203311      9544.0305      2405.3917     -627.42823     -714.59429     -50.368607     -502.96911     -756.10445    
     15000   301.4384      -4054.1428     -3537.4877     -4054.1638      0              964.72978      18.118914      23.514119      22.105032      9417.8554      621.01769      435.92392      1837.2477     -1134.7195     -292.29519     -403.70638    
     16000   287.52099     -4031.5151     -3538.714      -4032.1487      0             -1770.2563      18.206912      23.62832       22.21239       9555.742       484.59924     -3024.4478     -2770.9204     -230.15366     -43.237746     -440.15077    
     17000   296.81486     -4033.925      -3525.1945     -4034.4709      0             -2999.8305      18.229164      23.657198      22.239537      9590.8213     -2610.3655     -3129.743      -3259.3831      635.71826      147.94056      435.5365     
     18000   297.92199     -4065.7161     -3555.088      -4066.7526      0             -2255.191       18.174189      23.585854      22.172468      9504.3116     -901.30944     -3956.7992     -1907.4644     -1185.0677      368.5537       358.77495    
     19000   301.57809     -4026.4561     -3509.5616     -4030.9248      0             -6359.6356      18.158978      23.566113      22.15391       9480.4673     -8045.8503     -6137.6908     -4895.3658      584.50677      1187.5786      128.49724    
     20000   280.62494     -4021.546      -3540.5645     -4026.9497      0             -7312.5159      18.15048       23.555086      22.143544      9467.1646     -7283.0801     -8121.4792     -6532.9883     -516.34938     -26.139188     -867.79901    
     21000   274.67815     -4013.4624     -3542.6734     -4016.4131      0             -1214.7542      18.110725      23.503493      22.095042      9405.0928      132.40352     -2718.6035     -1058.0626      632.57996     -348.07271     -71.750758    
     22000   283.65401     -4063.8102     -3577.6369     -4065.9802      0              11102.764      18.142951      23.545314      22.134357      9455.3873      11790.193      11371.09       10147.009      330.0812       549.20938      379.54008    
     23000   295.70762     -4044.5668     -3537.734      -4053.1937      0              10170.572      18.141328      23.543208      22.132378      9452.8504      10147.631      11143.302      9220.784       517.09542     -831.9768      -524.78781    
     24000   284.1352      -4010.3074     -3523.3094     -4019.1395      0              7599.2625      18.158975      23.566109      22.153907      9480.4626      6394.1923      8449.5109      7954.0842     -596.21013      1047.6269      455.58955    
     25000   306.63215     -4012.5321     -3486.9751     -4013.5017      0             -1941.9896      18.179206      23.592365      22.178589      9512.1851     -796.77383     -4380.2453     -648.9495      -14.722422     -817.71832      596.86023    
     26000   318.14791     -3998.0566     -3452.762      -3999.5439      0             -1257.3084      18.145867      23.549098      22.137915      9459.9472     -1973.0069     -698.38624     -1100.5321     -485.94927      1061.5401     -392.16187    
     27000   275.59524     -3995.0027     -3522.6419     -3996.387       0              212.32947      18.067602      23.447529      22.042432      9338.0695     -579.45376     -683.43865      1899.8808     -240.55122     -126.81475     -472.12121    
     28000   297.3815      -4036.1798     -3526.4781     -4036.1805      0              7486.6841      18.065563      23.444883      22.039945      9334.9088      6327.522       7163.9667      8968.5637     -229.36238      520.56333      611.89019    
     29000   306.53178     -4012.5898     -3487.2048     -4022.8093      0             -4857.3502      18.050672      23.425558      22.021778      9311.8446     -4239.129      -6367.9927     -3964.9289      1147.355       1315.6786     -694.9378     
     30000   296.82059     -3977.3816     -3468.6413     -3977.4087      0              14150.489      18.091076      23.477993      22.071071      9374.5144      15105.061      13983.645      13362.761     -1791.1605      894.70194      3344.4977    
     31000   276.18849     -4010.296      -3536.9184     -4015.2695      0             -16569.047      18.074564      23.456563      22.050925      9348.8678     -17244.028     -18636.589     -13826.523      58.209916     -529.27323     -612.0671     
     32000   309.87648     -3977.6677     -3446.55       -3978.4977      0              12857.666      18.108346      23.500405      22.09214       9401.3871      12386.502      13837.725      12348.769      587.40308      299.00453      612.76909    
     33000   294.63073     -4026.0147     -3521.0277     -4027.7121      0             -8298.6015      18.084584      23.469567      22.06315       9364.4249     -8216.0219     -10304.74      -6375.0423     -745.73631      57.911289     -62.973003    
     34000   293.53184     -4027.5704     -3524.4668     -4028.3684      0              402.5492       18.102538      23.492867      22.085054      9392.343       1403.3329      269.34309     -465.02837      374.8539      -10.558993      640.35423    
     35000   319.17962     -4004.2244     -3457.1615     -4004.2588      0              116.64554      18.084724      23.469749      22.063321      9364.6428      235.56547     -1617.5357      1731.9068      1174.0172     -444.31784     -368.97755    
     36000   298.93971     -4018.5976     -3506.2252     -4018.6008      0              206.6727       18.05069       23.425581      22.0218        9311.8719     -173.64195      733.15254      60.507499     -1130.8376      143.2184      -145.57228    
     37000   292.6427      -3991.037      -3489.4574     -3992.971       0              236.38681      18.119603      23.515014      22.105873      9418.9305      416.1679      -1243.5267      1536.5192     -834.99023      391.14509      1065.1284    
     38000   309.95703     -3932.6867     -3401.431      -3932.8165      0             -3793.3291      18.098665      23.487841      22.080329      9386.3162     -5233.0884     -4124.8238     -2022.0752     -531.08808     -295.18483      441.0832     
     39000   300.91452     -3968.2714     -3452.5142     -3968.403       0             -6904.1119      18.075768      23.458126      22.052394      9350.7366     -9531.5197     -5851.1078     -5329.7083      363.43303      109.47878     -748.54949    
     40000   315.39905     -3973.0227     -3432.4395     -3973.5973      0             -11077.872      18.157739      23.564506      22.152399      9478.5277     -12172.558     -11988.874     -9072.1824     -770.8178       1936.6526      12.499661    
     41000   310.99236     -3969.9672     -3436.937      -3976.2928      0              2198.0529      18.112513      23.505813      22.097224      9407.8785      2827.4186      1455.9406      2310.7993     -676.07983     -197.53953      1399.7139    
     42000   291.96008     -3937.7049     -3437.2953     -3937.7569      0              3510.143       18.051766      23.426978      22.023113      9313.5375      3943.0698      2355.9564      4231.4028      72.226625      371.91672     -450.37908    
     43000   306.18354     -3961.1038     -3436.3157     -3968.9229      0              1413.3429      18.139802      23.541227      22.130516      9450.465       1828.872       942.41073      1468.746      -906.85666     -146.57366     -61.697283    
     44000   317.1317      -3965.4317     -3421.8788     -3974.8396      0             -8623.9614      17.98632       23.342043      21.943268      9212.6056     -8513.3658     -10315.304     -7043.2142     -290.16728      1404.498       2241.5659    
     45000   309.67708     -3931.5272     -3400.7513     -3931.5836      0              5887.444       18.136284      23.536662      22.126224      9444.9672      4294.1155      8307.4866      5060.7299     -564.75683     -230.51708     -403.1319     
     46000   314.56321     -3941.676      -3402.5255     -3942.81        0             -7268.839       18.053038      23.428629      22.024665      9315.5068     -8475.0186     -8041.2664     -5290.2321      456.98261      567.57733      2005.022     
     47000   296.18433     -3984.3292     -3476.6794     -3985.2083      0             -678.51993      18.04485       23.418002      22.014675      9302.8368     -966.49211     -2215.877       1146.8093      1111.5201      172.29194      230.87047    
     48000   298.44195     -3959.3851     -3447.8658     -3961.7734      0              8303.5801      17.993334      23.351147      21.951826      9223.3884      7015.7189      10459.614      7435.4073     -156.89607      1185.6675      42.554891    
     49000   287.2723      -3960.2929     -3467.918      -3960.3449      0              5290.0417      18.070122      23.4508        22.045507      9341.9779      4285.0544      5130.6709      6454.3997      145.74131     -698.82905      321.96754    
     50000   290.57742     -3945.4532     -3447.4135     -3948.7319      0             -4767.8369      18.089138      23.475478      22.068706      9371.5017     -5881.1701     -4043.6902     -4378.6503     -34.015555      135.11377      175.23638    
     51000   284.2211      -3972.1        -3484.9547     -3972.1732      0             -2424.1474      18.063785      23.442575      22.037776      9332.1526     -2525.9216     -2585.1148     -2161.4058      319.01608      1010.7528      997.63178    
     52000   300.10644     -3942.7321     -3428.3599     -3943.7728      0             -2822.515       18.042886      23.415453      22.012279      9299.7992     -3376.3016     -3258.0003     -1833.2433     -12.237377     -1105.317       1764.6114    
     53000   309.71176     -3922.9059     -3392.0705     -3922.9964      0             -7547.5446      18.070843      23.451735      22.046386      9343.0958     -8661.8897     -6855.3349     -7125.4091     -561.25781     -164.12269      1395.6513    
     54000   303.22557     -3950.7715     -3431.0532     -3951.2736      0              11255.877      18.042888      23.415456      22.012281      9299.8022      9388.9724      9713.8334      14664.826      1374.365       108.53935      2943.0593    
     55000   285.18498     -3956.5691     -3467.7718     -3957.9673      0              12372.516      18.193113      23.610412      22.195555      9534.0315      14823.581      9164.9569      13129.009      1653.9338      843.90941     -1514.7632    
     56000   301.11443     -3939.0566     -3422.9568     -3939.6292      0              10693.021      18.1392        23.540446      22.129781      9449.5239      12133.671      8901.4108      11043.982     -736.99113     -1793.6893     -609.37635    
     57000   307.59871     -3970.0325     -3442.8189     -3970.4904      0             -6986.2476      18.093437      23.481056      22.073951      9378.1843     -7328.2119     -5650.2539     -7980.2771     -1970.9191      1712.6774      523.76576    
     58000   316.95597     -3981.5638     -3438.3121     -3991.1314      0              4068.3026      18.060163      23.437874      22.033356      9326.5397      4803.8371      3676.9765      3724.0943      535.87978     -164.24176     -238.14162    
     59000   306.18069     -3974.9012     -3450.118      -3975.9635      0              10260.843      18.143143      23.545563      22.134591      9455.6873      12957.138      11748.079      6077.3109      635.23995      125.84933      869.85761    
     60000   295.39724     -4041.285      -3534.9842     -4050.8023      0              6938.5571      18.095223      23.483374      22.07613       9380.9619      6774.6451      6099.5268      7941.4994      758.06274      1139.7096      824.23365    
     61000   289.82134     -3977.3457     -3480.6018     -3986.7111      0              16665.11       18.044464      23.417501      22.014204      9302.2392      17437.851      15262.934      17294.545     -2007.5579      4365.053      -1358.3836    
     62000   297.40164     -4005.8538     -3496.1176     -4007.7636      0             -1015.3974      18.018725      23.384098      21.982803      9262.4898     -1576.6105      705.82878     -2175.4107      44.581402     -784.50907     -286.06683    
     63000   299.03703     -3978.6685     -3466.1293     -3985.779       0              2833.5603      18.01048       23.373398      21.972744      9249.7809      1190.3617      2503.8834      4806.436      -481.62709      249.89595     -428.81134    
     64000   297.78119     -3976.6351     -3466.2484     -3996.0936      0             -10538.435      18.144275      23.547033      22.135973      9457.4582     -12428.523     -10479.487     -8707.2942      1010.3102      947.74575      1491.9045    
     65000   281.24216     -3937.9685     -3455.9291     -3949.8781      0              20558.432      17.987389      23.343431      21.944573      9214.2494      20840.313      19099.21       21735.772      1055.4566      1031.1298     -2154.3125    
     66000   275.70821     -3982.8019     -3510.2474     -3987.7875      0             -11657.215      18.050595      23.425458      22.021684      9311.7248     -13535.792     -11724.74      -9711.1144     -3837.3765      784.8034       5531.6493    
     67000   305.76592     -3985.7063     -3461.634      -3985.7095      0             -12883.628      18.067811      23.4478        22.042687      9338.3931     -12750.599     -14366.075     -11534.209      370.68742      2130.1651     -194.89637    
     68000   299.29044     -3971.4061     -3458.4326     -3971.5417      0             -3614.488       18.094319      23.482201      22.075026      9379.5556     -3969.5814     -4049.0443     -2824.8383      2210.388      -160.35889     -1300.0993    
     69000   288.09321     -3970.6319     -3476.85       -3973.8983      0              3365.6726      18.011407      23.374601      21.973875      9251.2092      4492.63        2133.9703      3470.4176     -158.36812      413.62978     -480.7329     
     70000   312.36703     -3984.0774     -3448.691      -3985.5721      0             -8185.5788      18.077221      23.460012      22.054167      9352.9919     -9914.6945     -6619.5952     -8022.4467      2936.4895      2110.1331      728.1986     
     71000   286.74978     -3957.7209     -3466.2416     -3960.2426      0              2766.9296      18.014716      23.378895      21.977911      9256.3078      1697.1194      3179.0045      3424.6649     -723.04986     -308.22579     -93.315866    
     72000   300.3708      -3985.9982     -3471.1729     -3987.307       0              1585.2995      18.042599      23.415081      22.011928      9299.3554      2144.9025      963.87253      1647.1236     -27.856738     -151.18651     -432.85446    
     73000   279.39119     -3968.9917     -3490.1248     -3970.7283      0              3614.0944      18.017663      23.382719      21.981506      9260.8515      2451.4441      3650.4361      4740.4032     -1037.4219      2367.072      -207.65709    
     74000   305.22346     -3960.6385     -3437.4959     -3964.4509      0              9155.1169      18.111319      23.504264      22.095767      9406.0183      8073.2531      9819.3027      9572.7948     -497.92504      838.18628     -1961.5536    
     75000   298.00069     -3954.5679     -3443.8049     -3954.7576      0              6248.7953      18.080502      23.46427       22.05817       9358.0854      6513.691       6143.55        6089.1448     -1508.4635      810.5299      -263.11058    
     76000   300.53133     -3921.7168     -3406.6164     -3924.8846      0             -9459.2935      18.102381      23.492663      22.084862      9392.0985     -11095.079     -8953.668      -8329.1333      3826.6264      185.90372     -575.10302    
     77000   320.83108     -3968.9435     -3419.05       -3969.3         0             -6151.4233      18.137667      23.538457      22.127912      9447.1295     -3959.6003     -6977.3296     -7517.3401      1790.7233     -23.882504      151.65219    
     78000   297.68112     -3961.1657     -3450.9504     -3964.7604      0             -2817.9177      18.028752      23.39711       21.995035      9277.9606     -2714.5634     -1483.46       -4255.7297     -983.90204     -32.597306      320.84456    
     79000   273.58457     -3963.1347     -3494.2201     -3963.1347      0              1247.9282      18.03754       23.408515      22.005756      9291.5347      1221.3747      1202.2606      1320.1494      752.18725     -230.02405     -946.37046    
     80000   297.50715     -3968.525      -3458.608      -3968.526       0              3793.3608      18.006936      23.368798      21.968419      9244.3207      4115.2292      3985.3502      3279.5031     -57.034931     -180.34708     -186.05308    
     81000   314.5332      -3967.6074     -3428.5083     -3967.787       0             -10607.641      18.041418      23.413548      22.010488      9297.5293     -11976.487     -10745.658     -9100.7779      239.95524     -229.56651      487.5507     
     82000   318.65624     -4003.6706     -3457.5047     -4010.7602      0              12004.889      17.942043      23.284583      21.889251      9144.7378      10616.19       12712.281      12686.196      261.78664      686.98786      85.08472     
     83000   291.63038     -3952.5355     -3452.691      -3952.5995      0              6993.2301      18.006147      23.367774      21.967457      9243.1058      6835.8494      5562.2875      8581.5535     -1331.1547     -500.20299      2805.1952    
     84000   291.6162      -3949.7874     -3449.9673     -3951.1047      0              7275.6783      18.07452       23.456506      22.050872      9348.7995      7083.3925      7718.34        7025.3024     -560.12728     -1056.2123     -2275.7793    
     85000   297.98196     -3915.6163     -3404.8854     -3919.895       0              2783.7445      18.080305      23.464015      22.05793       9357.7799      2405.2727      2313.4762      3632.4846     -1236.3446     -1049.9047      601.4262     
     86000   305.42179     -3904.4945     -3381.012      -3905.0396      0              9084.1886      18.095111      23.48323       22.075994      9380.7884      7512.9313      14006.151      5733.4835     -1249.1472      915.22752     -1902.3921    
     87000   311.53554     -3988.5005     -3454.5393     -3992.6579      0              477.47216      18.025501      23.392892      21.99107       9272.9438      351.19069     -50.414801      1131.6406      7.5555902      795.4545      -1094.754     
     88000   295.51359     -3970.0452     -3463.545      -3970.2346      0             -1413.2364      18.08048       23.464242      22.058144      9358.0522     -778.57345     -1849.2234     -1611.9124      123.61412     -57.155057      35.474251    
     89000   314.89692     -3980.7559     -3441.0334     -3983.6185      0             -2006.4846      18.057696      23.434674      22.030348      9322.7194     -1705.4654     -2498.5375     -1815.4508      418.08969      724.50545      239.84139    
     90000   298.8479      -3974.4941     -3462.279      -3975.2208      0              875.73989      17.932671      23.272419      21.877816      9130.4141     -96.392414      1466.7316      1256.8805     -618.85223      207.89616     -1363.242     
     91000   307.95052     -3957.6658     -3429.8491     -3958.674       0              1437.9431      18.073902      23.455705      22.050118      9347.8415      2377.5         1679.5971      256.73235      988.12512      617.22275     -644.44595    
     92000   281.32596     -3958.6943     -3476.5112     -3961.7601      0             -5762.7664      17.99177       23.349117      21.949917      9220.9833     -6108.5576     -5438.5121     -5741.2296     -890.28311      1034.6225      1095.0823    
     93000   299.34135     -3937.9754     -3424.9145     -3943.9208      0             -4574.9663      18.012307      23.375768      21.974972      9252.595      -5810.2932     -3601.3949     -4313.2109      1025.8735      2729.6187      921.03035    
     94000   310.22746     -3983.9199     -3452.2006     -3984.6979      0             -8751.9775      18.032331      23.401756      21.999402      9283.4886     -10138.223     -8151.9691     -7965.7408     -1264.0461      371.50734     -1676.2931    
     95000   310.20856     -3972.3877     -3440.7009     -3976.6191      0              4701.4855      18.0639        23.442724      22.037916      9332.3305      5411.6744      3820.592       4872.1902     -390.95163      133.40967     -359.00068    
     96000   282.39067     -3955.727      -3471.719      -3955.7632      0              3084.2525      18.10186       23.491988      22.084227      9391.2882      1977.7287      2249.7564      5025.2723     -549.46166      164.24738      30.658076    
     97000   323.51907     -3958.0731     -3403.5725     -3958.3498      0             -1213.5378      18.1026        23.492948      22.08513       9392.4402     -2290.9152     -311.65221     -1038.0461      444.17585     -611.03969      602.99184    
     98000   308.97059     -3950.0036     -3420.4385     -3950.005       0             -2832.3588      18.142133      23.544253      22.13336       9454.109      -3471.3455     -2490.2724     -2535.4584     -307.1185       14.363927     -457.68422    
     99000   304.32115     -3977.6264     -3456.0304     -3978.1658      0              3891.1687      18.101722      23.491809      22.084059      9391.0742      4003.2382      2768.6327      4901.6353      88.499864     -558.93314     -218.28651    
    100000   315.40105     -3962.2976     -3421.711      -3962.9728      0             -1832.5221      18.100237      23.489881      22.082246      9388.7619     -1717.9214     -2120.3382     -1659.3068      666.62358     -253.20984      1046.6553    
    101000   331.30787     -4005.6197     -3437.7693     -4007.3712      0             -395.55062      17.941052      23.283297      21.888042      9143.2226     -670.44126      539.8325      -1056.0431      97.01215       1199.4741     -338.80199    
    102000   306.97387     -3980.5649     -3454.4222     -3985.5202      0             -3041.3784      18.11889       23.514089      22.105004      9417.819      -3914.9965     -2956.0056     -2253.1332      1405.6642      327.08322      166.29306    
    103000   296.54958     -3990.7132     -3482.4374     -3991.9144      0              5416.855       18.090651      23.477441      22.070552      9373.8533      5793.475       5525.2074      4931.8825     -1771.7121     -706.78729      1299.1294    
    104000   316.19123     -3981.9085     -3439.9675     -3988.7131      0             -9653.2118      18.083272      23.467865      22.06155       9362.3877     -10188.431     -8634.8142     -10136.391      2104.7007      2485.5071     -444.33202    
    105000   307.45403     -4012.3253     -3485.3596     -4012.8983      0              1862.2532      18.064647      23.443694      22.038827      9333.4882      1455.3168      2640.5731      1490.8695      190.27382      150.0637       277.01771    
    106000   299.62111     -3979.2201     -3465.6797     -3979.7073      0              2118.8467      18.109931      23.502462      22.094074      9403.8556      3204.97        853.66293      2297.9071     -149.39016     -451.69941      214.7128     
    107000   300.40311     -3999.8114     -3484.9307     -4000.1144      0             -7669.4843      18.058768      23.436064      22.031655      9324.3787     -6647.1882     -7826.3377     -8534.9271      2446.3784     -154.77276     -1563.6651    
    108000   298.62263     -3978.3881     -3466.5591     -3980.3616      0              5989.1694      18.113122      23.506604      22.097967      9408.8281      5929.1195      5629.8254      6408.5633     -264.08524      379.07428      495.03973    
    109000   299.14424     -4021.913      -3509.19       -4023.3332      0              10800.392      18.031568      23.400765      21.998471      9282.3093      12251.465      9234.4055      10915.305     -2307.4232      217.63691      2223.4884    
    110000   293.48356     -3977.6558     -3474.635      -3977.7412      0             -3163.7224      18.048316      23.422501      22.018904      9308.1987     -3949.42       -2402.6875     -3139.0598      674.27518      219.2506      -848.46037    
    111000   304.94875     -4022.2231     -3499.5514     -4022.2604      0             -3919.2678      18.003315      23.364099      21.964002      9238.7451     -3088.2542     -3770.4355     -4899.1136     -51.772102     -1096.8244     -373.3021     
    112000   308.21442     -3969.4849     -3441.2159     -3969.5507      0              3928.305       18.113013      23.506462      22.097833      9408.6574      4169.0022      3041.0416      4574.8712      418.33099      1716.4923     -106.66154    
    113000   304.31772     -3982.7027     -3461.1125     -3985.4614      0             -575.70468      18.074527      23.456516      22.050881      9348.811       209.59833     -1645.1726     -291.53975      501.16177      712.3482       436.36593    
    114000   312.24599     -3990.7774     -3455.5984     -3992.3515      0             -8799.9727      18.065039      23.444203      22.039306      9334.0964     -8936.7013     -9809.8295     -7653.3874      2437.065       132.09719      1095.1316    
    115000   294.29186     -3994.0296     -3489.6234     -3994.1154      0             -6613.4758      18.028557      23.396858      21.994797      9277.6602     -6380.002      -6663.4545     -6796.9709      1909.9934      1667.331       111.05477    
    116000   292.88847     -3987.4179     -3485.4171     -3988.8839      0             -8524.829       18.107751      23.499633      22.091414      9400.4597     -10359.457     -6285.441      -8929.5893      654.89907      341.58843     -310.6473     
    117000   288.34365     -3998.1642     -3503.953      -4006.6336      0             -7581.6716      18.077735      23.460679      22.054794      9353.7898     -6273.6487     -7732.6612     -8738.7048      874.15077      668.22059     -412.40391    
    118000   294.35438     -4000.4963     -3495.983      -4003.909       0             -7305.319       18.041994      23.414296      22.011191      9298.4204     -6199.9257     -7414.8248     -8301.2065      1515.2773      0.70802493    -85.260958    
    119000   308.28918     -3984.7278     -3456.3307     -3986.0339      0             -5804.9492      18.074678      23.456711      22.051064      9349.0448     -6535.0418     -4933.3687     -5946.4373      790.89428     -427.20273     -2601.6446    
    120000   292.10664     -3971.2399     -3470.5791     -3971.7839      0             -175.25784      18.117001      23.511638      22.1027        9414.8743     -1657.6344     -263.97332      1395.8342      1081.7222      907.54531     -402.93491    
    121000   299.89284     -3939.9632     -3425.9571     -3940.0166      0              5612.6298      18.093141      23.480673      22.07359       9377.7249      6063.7565      5654.7979      5119.3351     -542.86386      134.27011     -786.58196    
    122000   297.93327     -3967.2124     -3456.565      -3967.2696      0             -3917.7306      18.053002      23.428581      22.02462       9315.4497     -2769.7951     -4745.5313     -4237.8653      1167.8635      1094.8211      1634.047     
    123000   299.47961     -3961.896      -3448.5982     -3966.2398      0              7423.37        18.112874      23.506282      22.097665      9408.4417      7859.3346      8095.2306      6315.5447      405.36702     -342.85481     -495.39577    
    124000   289.35438     -3939.1475     -3443.204      -3940.3028      0             -7375.845       18.080206      23.463885      22.057809      9357.6253     -6209.9851     -8824.5014     -7093.0486      599.53121      696.60715      102.99563    
    125000   302.35378     -3985.6531     -3467.4291     -3990.0325      0             -4343.798       18.108378      23.500447      22.092179      9401.4373     -3283.6092     -5449.415      -4298.3699      265.59078      841.70775      503.1666     
    126000   297.85651     -3968.2233     -3457.7074     -3969.2319      0              3353.6435      18.049452      23.423975      22.020289      9309.9561      2277.5744      4869.8254      2913.5307      711.8441       1374.4719     -92.909666    
    127000   292.31866     -3962.1654     -3461.1412     -3962.3431      0             -3241.28        18.109144      23.501441      22.093114      9402.6298     -5037.5316     -2079.1379     -2607.1704      64.538686      770.30651     -473.56297    
    128000   310.55126     -3974.7694     -3442.4952     -3975.123       0             -4164.0715      18.082069      23.466303      22.060082      9360.5187     -2969.8742     -2962.5113     -6559.8289     -570.46325      186.93072     -125.99339    
    129000   290.52673     -3979.8131     -3481.8603     -3980.7137      0              2162.1276      18.03521       23.405492      22.002915      9287.9358      2386.9454      2795.2643      1304.173       123.80689     -210.09308      1136.1288    
    130000   298.10543     -3959.118      -3448.1755     -3962.7242      0              1247.1102      18.147972      23.551831      22.140484      9463.241       2102.7292      632.92499      1005.6766     -14.666293      131.56114      365.58122    
    131000   310.85375     -3963.2251     -3430.4324     -3965.8555      0             -6301.9106      18.096425      23.484934      22.077596      9382.8314     -7057.9574     -6627.8035     -5219.9709      1829.9533     -878.94089     -368.49955    
    132000   302.71802     -3955.7334     -3436.885      -3956.141       0              619.94701      18.043594      23.416372      22.013142      9300.8939      2027.1435      476.13489     -643.43733      621.2492       348.06498     -1507.2162    
    133000   298.99533     -3966.0422     -3453.5744     -3973.0928      0             -6218.2991      18.034754      23.4049        22.002358      9287.2309     -7286.1004     -7457.4724     -3911.3246      602.22706     -777.69369     -527.66379    
    134000   311.33515     -3967.9379     -3434.3201     -3971.5976      0              1740.2193      18.012354      23.375831      21.97503       9252.6688      1398.7375      209.62664      3612.2937     -831.04055      488.6583      -553.58251    
    135000   300.60897     -3957.8478     -3442.6143     -3958.5201      0              1454.8495      18.092195      23.479445      22.072436      9376.2542      2243.8147      462.07292      1658.6608     -1057.886       605.68033      560.40142    
    136000   306.97889     -3978.2067     -3452.0554     -3978.6719      0             -8391.4256      18.066345      23.445898      22.040899      9336.1212     -10033.243     -6505.262      -8635.7722     -1462.5808      434.16944      50.018187    
    137000   301.62024     -3960.8493     -3443.8825     -3962.2156      0             -893.26269      17.984913      23.340218      21.941552      9210.4451     -1878.263      -937.92664      136.4016       62.162867     -175.45944     -699.82497    
    138000   292.57907     -3932.1135     -3430.643      -3932.1762      0             -3746.5629      18.144762      23.547664      22.136567      9458.2193     -3677.6989     -3493.5521     -4068.4376      389.88418     -182.77357      348.23626    
    139000   293.4693      -3931.506      -3428.5097     -3931.8757      0              5368.5304      18.027941      23.396059      21.994046      9276.7097      5446.1503      5000.4215      5659.0192      290.33761      202.78988      389.28107    
    140000   310.02558     -3955.2463     -3423.873      -3955.5362      0              3309.7077      18.13224       23.531414      22.121291      9438.6519      4415.0095      2118.977       3395.1365     -486.91168     -268.83494     -420.92362    
    141000   304.53866     -3973.988      -3452.0191     -3988.088       0             -10614.475      18.044579      23.41765       22.014344      9302.4169     -11628.568     -12436.582     -7778.273       449.3057       31.255283      1882.9675    
    142000   310.79262     -3991.9745     -3459.2866     -4006.264       0             -10093.7        18.037636      23.40864       22.005873      9291.6832     -9568.8421     -9701.4415     -11010.817     -686.68457      189.46561      339.9582     
    143000   290.50493     -3977.7143     -3479.7988     -3979.5404      0              8001.1387      18.108865      23.501079      22.092773      9402.1952      7525.1965      10083.297      6394.923      -57.69217      -227.72735      54.479719    
    144000   294.87734     -3946.3171     -3440.9074     -3947.9936      0             -5488.5043      18.01813       23.383326      21.982076      9261.5718     -4960.9127     -5335.2474     -6169.3526      2415.9312     -1135.6504      483.5423     
    145000   284.64787     -3953.4218     -3465.5451     -3957.5701      0              10959.58       18.027982      23.396112      21.994096      9276.773       9951.6488      8545.6311      14381.459     -516.59142      1254.9396      891.65877    
    146000   301.83353     -3991.1546     -3473.8222     -3991.5082      0             -4789.4502      17.999272      23.358853      21.95907       9232.5229     -5846.7804     -4946.211      -3575.3593     -1591.5559     -622.19969      586.61677    
    147000   294.91653     -3938.3025     -3432.8256     -3938.8711      0              3562.9678      18.039263      23.410751      22.007859      9294.1981      4650.362       3289.4961      2749.0452     -440.45967      145.00849      1877.2628    
    148000   282.08544     -3947.9603     -3464.4755     -3947.9609      0              472.8393       18.24395       23.676387      22.257576      9614.1779     -827.79232      1417.6708      828.63945     -33.307165      685.11107     -95.444923    
    149000   304.26437     -3924.4832     -3402.9844     -3926.5464      0             -713.80762      18.026964      23.39479       21.992854      9275.2007     -1756.0883      304.73995     -690.07448      303.40838      1676.4467      883.02179    
    150000   311.16659     -3978.3362     -3445.0073     -3979.3049      0              4922.1961      18.00953       23.372165      21.971585      9248.3172      3404.6737      4034.9276      7326.9871      482.34894     -1335.8038     -42.883303    
    151000   299.12254     -3965.0596     -3452.3738     -3965.765       0             -1052.4933      17.991028      23.348154      21.949012      9219.8428     -1612.696       170.8971      -1715.681      -615.03506      1828.1172      2546.8052    
    152000   311.49265     -3949.4529     -3415.5651     -3950.728       0              1421.0974      18.047711      23.421716      22.018166      9307.2628      1517.4497      998.18587      1747.6567      846.46974     -1076.814       636.71333    
    153000   303.33979     -3984.2276     -3464.3136     -3987.7055      0              2651.1754      17.998943      23.358426      21.958669      9232.017       2277.5517      1321.5249      4354.4498     -622.24319     -165.21604     -669.45781    
    154000   298.04191     -3967.2116     -3456.378      -3968.6022      0             -9325.2676      17.956245      23.303014      21.906577      9166.4707     -10939         -6726.7534     -10310.049      1728.7326      169.2246       613.46972    
    155000   306.84911     -3929.8241     -3403.8952     -3937.0148      0             -8735.7423      18.091409      23.478425      22.071477      9375.0318     -10226.399     -8305.3984     -7675.4292     -679.80717      667.67276     -2350.3143    
    156000   304.92637     -3972.6526     -3450.0193     -3974.7048      0             -1264.7522      18.07426       23.456169      22.050555      9348.3964     -2448.9011     -1547.2116      201.85605     -1076.0502      271.59455     -37.637901    
    157000   309.24059     -3996.0476     -3466.0198     -3999.5208      0             -2068.4988      18.02798       23.396109      21.994094      9276.77       -2470.9024     -1205.3925     -2529.2013      235.55247     -1726.1165     -814.30492    
    158000   290.09148     -3977.6692     -3480.4623     -3978.0184      0              2692.1468      18.096413      23.484919      22.077582      9382.8136      2869.1308      3940.2751      1267.0344     -750.3976      -484.01204     -446.18438    
    159000   283.54538     -3963.7112     -3477.7241     -3964.2538      0             -5172.0132      18.01833       23.383586      21.982321      9261.8808     -5521.3803     -5993.9237     -4000.7356      830.41539     -701.30469     -514.48226    
    160000   303.89513     -3962.6763     -3441.8104     -3968.4724      0              10813.413      18.021822      23.388117      21.986581      9267.2665      11072.54       12474.844      8892.8549     -1796.7116     -2626.6735      241.35425    
    161000   284.68927     -3952.2945     -3464.3468     -3952.3881      0              4576.7901      18.049929      23.424593      22.020871      9310.6934      4334.725       5543.3024      3852.3429     -1720.3066     -32.57355       195.26892    
    162000   315.25023     -3975.7278     -3435.3997     -3979.942       0              14.844458      18.012789      23.376395      21.975561      9253.3389     -1023.6854      1101.1805     -32.961744     -17.742569      1009.6243      369.11376    
    163000   291.07327     -3967.8856     -3468.9959     -3968.5746      0             -3907.6418      18.103273      23.493822      22.085951      9393.4877     -4516.9801     -2903.3494     -4302.5959      573.20792     -571.56403     -1312.1648    
    164000   300.68376     -3970.7569     -3455.3952     -3976.2024      0             -7523.0792      18.121406      23.517354      22.108073      9421.7422     -7630.5102     -7463.1581     -7475.5694      626.31301     -687.0995      -207.26401    
    165000   311.47967     -3960.6692     -3426.8037     -3965.8183      0              6010.6011      18.085429      23.470664      22.064181      9365.7379      6597.6837      6745.5282      4688.5912      100.4854      -701.73392      1092.7015    
    166000   283.66934     -3897.0606     -3410.861      -3900.2072      0             -5449.0771      18.093564      23.481221      22.074105      9378.3815     -6908.5891     -5826.1917     -3612.4505     -219.04285      609.07119     -110.22211    
    167000   290.16055     -3971.6409     -3474.3157     -3975.6668      0              9276.5933      18.13088       23.529649      22.119631      9436.5274      7588.1009      7811.774       12429.905     -168.20098     -401.38809      1572.7664    
    168000   309.99593     -3929.3357     -3398.0133     -3929.3421      0             -6764.6296      18.098568      23.487715      22.080211      9386.1653     -7853.1661     -6404.8297     -6035.8931      437.67182     -384.97766      229.97253    
    169000   284.66497     -4010.1457     -3522.2396     -4012.4842      0              5664.3457      18.082178      23.466445      22.060215      9360.6878      4786.6542      6841.194       5365.1889      137.1027       258.82318      661.13201    
    170000   310.93864     -3980.9748     -3448.0367     -3991.2713      0              4238.3448      18.14631       23.549674      22.138456      9460.6413      5289.6995      4326.4623      3098.8726      691.96253     -253.27487      254.02843    
    171000   297.01236     -3974.2375     -3465.1684     -3974.3526      0             -5564.9058      18.073682      23.45542       22.04985       9347.5006     -6814.7167     -5710.1346     -4169.866      -2124.2564      276.11688     -554.51089    
    172000   294.63816     -3986.1581     -3481.1584     -3989.3349      0             -6583.3868      18.163748      23.572305      22.159731      9487.9416     -7486.657      -6207.8436     -6055.6599     -1078.7418      1225.7607     -680.89633    
    173000   273.01251     -3957.5676     -3489.6335     -3958.3431      0              5801.5421      18.087436      23.473269      22.06663       9368.8571      7664.2039      4811.6742      4928.7483      663.02093     -46.413069      911.34974    
    174000   305.5606      -3946.5191     -3422.7987     -3947.1485      0              3748.3346      17.977937      23.331164      21.933041      9199.7307      4135.1505      2916.3748      4193.4784      1149.8938     -987.47231     -938.85818    
    175000   296.53355     -3971.1986     -3462.9503     -3971.325       0             -5646.009       18.070563      23.451372      22.046045      9342.6622     -6392.7895     -5122.8532     -5422.3844     -957.54017      572.63893     -1844.2573    
    176000   302.2193      -3960.7112     -3442.7177     -3964.0421      0              5792.6224      18.114028      23.507779      22.099072      9410.2399      5391.7575      5603.3736      6382.7361     -976.82299     -291.96499      50.914867    
    177000   294.33731     -3988.1681     -3483.684      -3991.6868      0             -9475.0438      18.072003      23.453241      22.047802      9344.8955     -11227.612     -9733.6972     -7463.8227      1959.5032     -1131.9347     -922.5264     
    178000   303.57805     -3935.3775     -3415.0552     -3937.0051      0              5817.4703      18.066742      23.446413      22.041383      9336.7365      4667.5798      6247.3003      6537.5307      1081.5624     -256.90267     -424.19429    
    179000   287.60769     -3962.0487     -3469.0989     -3970.7589      0             -7087.6729      18.049277      23.423747      22.020075      9309.6847     -7277.1759     -8940.2487     -5045.5941     -309.42195      2061.5568     -1660.088     
    180000   318.71649     -3976.5802     -3430.311      -3976.6858      0             -6290.6621      17.998188      23.357446      21.957747      9230.8546     -7333.7152     -5035.2358     -6503.0353     -495.80404      1573.5632     -1551.1014    
    181000   302.89647     -3950.5936     -3431.4394     -3950.9712      0             -128.48178      18.014147      23.378156      21.977217      9255.4309      819.20375      460.06519     -1664.7143      350.61172      121.49558      969.43786    
    182000   294.4438      -3961.3012     -3456.6346     -3961.8947      0             -5657.8226      18.127366      23.525088      22.115344      9431.0416     -6434.9715     -3925.7232     -6612.7731     -360.96365      388.13143     -688.63084    
    183000   298.77469     -3970.9574     -3458.8678     -3972.533       0              4818.119       17.992514      23.350082      21.950825      9222.1269      6482.6591      4962.0226      3009.6754     -283.64488      10.318303      1119.3838    
    184000   290.49907     -3917.3507     -3419.4453     -3918.5799      0             -4326.7557      18.09434       23.482229      22.075053      9379.589      -3887.592      -4039.4638     -5053.2114     -166.41467      1069.7214      390.09223    
    185000   283.32247     -3972.154      -3486.549      -3975.0364      0              6688.2375      18.043947      23.41683       22.013573      9301.4403      7442.5909      8478.0717      4144.0499      638.82627      820.25147     -403.44238    
    186000   289.04764     -3966.1146     -3470.6969     -3966.28        0              4213.9178      18.09417       23.482008      22.074845      9379.3245      3890.9933      5254.1129      3496.6471      893.07217     -754.16941      449.78168    
    187000   301.89365     -3925.8133     -3408.3779     -3931.0595      0              7939.946       18.083845      23.468609      22.062249      9363.2781      10409.626      7049.9008      6360.311       302.05537     -761.79669     -565.09539    
    188000   312.80605     -3976.9359     -3440.797      -3977.7143      0             -3115.0727      18.135497      23.535641      22.125264      9443.7386     -1629.9477     -4131.1507     -3584.1196      724.90761     -484.3536      -372.16199    
    189000   289.14177     -4000.3137     -3504.7346     -4001.0809      0             -9432.1099      18.065365      23.444625      22.039703      9334.6011     -12775.401     -10171.043     -5349.8849      454.43975      731.01698      394.7885     
    190000   301.4487      -3944.9408     -3428.2681     -3944.9416      0             -7502.0363      18.080125      23.463781      22.05771       9357.5004     -10328.605     -7200.302      -4977.2019     -1130.1262      2309.3917     -944.69354    
    191000   294.38717     -3940.2215     -3435.652      -3940.2473      0             -2603.6119      17.992406      23.349943      21.950694      9221.9619     -2029.5853     -1046.3128     -4734.9376     -206.13418     -761.66774     -30.681463    
    192000   294.44939     -3969.0354     -3464.3592     -3970.031       0             -597.06477      18.082261      23.466553      22.060316      9360.8173     -877.77771     -1344.0261      430.60953      845.68929      378.31181      501.01633    
    193000   299.84731     -3964.6383     -3450.7102     -3964.6383      0              6228.7103      18.10392       23.494661      22.08674       9394.4951      5914.2311      7375.4513      5396.4483     -577.65277      218.70201      702.22485    
    194000   301.91622     -3951.59       -3434.116      -3952.3811      0              7959.2774      18.097534      23.486373      22.078949      9384.5563      7729.6024      8531.7109      7616.519       232.66404      1232.0216      577.97095    
    195000   294.85233     -3940.4409     -3435.0741     -3941.7629      0             -4659.4207      18.104634      23.495588      22.087611      9395.6064     -6284.4624     -5364.3682     -2329.4316     -412.19922     -762.20208     -938.74714    
    196000   295.28892     -3943.6967     -3437.5816     -3945.7374      0             -3035.2625      18.022686      23.389238      21.987635      9268.5995     -3409.4566     -3074.6724     -2621.6586      472.18653      647.79562     -591.81678    
    197000   303.131       -3957.0511     -3437.4949     -3957.247       0             -947.20903      18.017331      23.382289      21.981102      9260.3398     -2255.3871     -1619.5707      1033.3308      1801.895       449.59764     -714.56518    
    198000   296.64017     -3954.3221     -3445.891      -3955.109       0             -8084.0606      18.018958      23.3844        21.983087      9262.8489     -9142.1585     -9524.9394     -5585.0839     -1232.2025      1483.4815      984.3322     
    199000   313.69331     -3956.5412     -3418.8816     -3961.9888      0             -7791.7978      18.02918       23.397666      21.995558      9278.6224     -7485.7307     -9307.5521     -6582.1105     -955.90573     -954.58904      441.81991    
    200000   297.52934     -3946.4746     -3436.5195     -3948.2436      0             -6910.6459      18.040425      23.41226       22.009276      9295.9946     -7179.8232     -8286.0268     -5266.0876      112.55174      1275.765       163.32988    
    201000   288.11804     -3956.9533     -3463.1288     -3957.5629      0              1684.1684      18.120123      23.515689      22.106508      9419.7413      625.47748      1749.8381      2677.1895     -923.00846      627.96622     -749.37572    
    202000   291.81836     -3956.3095     -3456.1429     -3957.0415      0              909.29222      18.057397      23.434286      22.029983      9322.256       311.84102      209.63399      2206.4017      515.14685      33.883344     -65.281666    
    203000   293.87399     -3959.9953     -3456.3054     -3960.3265      0              1322.1898      18.129016      23.52723       22.117357      9433.6176      1555.163       1132.2457      1279.1607      803.11488     -371.73394     -365.59401    
    204000   309.13464     -3947.3751     -3417.5289     -3948.3376      0             -2710.2647      18.051736      23.426939      22.023076      9313.4911     -3561.7597     -2758.6549     -1810.3794     -2261.481       216.18515     -947.70718    
    205000   298.90303     -3939.3619     -3427.0523     -3942.2346      0             -5377.0648      18.101511      23.491534      22.083801      9390.7445     -6949.4932     -3994.6078     -5187.0934     -1630.5135      451.18701     -67.127573    
    206000   300.63421     -3957.0628     -3441.786      -3957.5064      0              4825.7094      18.008562      23.370909      21.970404      9246.8262      4948.7304      3926.8035      5601.5942     -472.77687     -789.94788      1623.8118    
    207000   299.174       -3948.9225     -3436.1485     -3948.9544      0             -2091.7456      18.004308      23.365388      21.965214      9240.2742     -1893.58       -2709.5409     -1672.1159     -941.70743     -368.71498     -32.418232    
    208000   280.43918     -3956.9407     -3476.2775     -3957.8711      0             -6440.7903      18.027548      23.395548      21.993566      9276.102      -6640.5442     -7195.1652     -5486.6616     -340.0442      -2401.9239      580.16273    
    209000   293.90207     -3960.1554     -3456.4173     -3960.2722      0              5601.7087      18.06915       23.449537      22.04432       9340.4695      7048.3002      5145.7931      4611.0329      920.67688     -888.08391     -234.60464    
    210000   306.59932     -3927.6416     -3402.1409     -3928.6886      0              342.68612      18.046831      23.420573      22.017092      9305.9012      280.07167      821.89656     -73.909871      264.97054      301.50836      10.459851    
    211000   295.90022     -3900.3515     -3393.1887     -3903.0097      0              1985.3936      18.067738      23.447706      22.042598      9338.2808      1956.5055      1309.6391      2690.0362      944.32882     -809.52366     -117.95355    
    212000   298.97461     -3943.5757     -3431.1434     -3946.705       0             -1161.3416      18.066965      23.446702      22.041655      9337.0814     -2134.595      -417.63759     -931.79233     -463.26817      140.89816     -1034.7183    
    213000   305.23        -3968.1279     -3444.9741     -3973.7573      0              8894.9993      18.056958      23.433716      22.029447      9321.5762      10427.051      7595.7484      8662.1988      306.70415      1450.1675     -201.71804    
    214000   301.27239     -3959.1761     -3442.8055     -3959.2448      0             -1540.1748      18.070251      23.450967      22.045664      9342.1781     -2718.0129     -2682.7874      780.27593      272.33733     -136.74969      379.54588    
    215000   295.88505     -3920.0142     -3412.8773     -3920.3944      0             -2368.7547      18.03618       23.406751      22.004098      9289.434      -3383.0158     -1627.5571     -2095.6911     -488.00544     -429.01553     -398.00929    
    216000   301.04721     -3974.1289     -3458.1443     -3974.959       0             -3817.5558      18.04407       23.41699       22.013723      9301.6305     -3526.6922     -5530.7835     -2395.1917      137.20658      593.95386     -1227.3055    
    217000   287.94747     -3989.3127     -3495.7806     -3989.7971      0             -5356.8992      18.131769      23.530802      22.120715      9437.9151     -5045.2239     -3879.0761     -7146.3975     -414.6129      -90.426845     -1227.342     
    218000   305.33127     -4014.9441     -3491.6168     -4015.7667      0             -2811.0013      18.083369      23.467991      22.061668      9362.5386     -2183.8113     -3402.8057     -2846.387       1171.8568     -104.59257      5.6038338    
    219000   304.25964     -3921.3952     -3399.9046     -3922.4213      0             -5483.7395      18.142741      23.545042      22.134101      9455.0592     -4811.5538     -5760.2916     -5879.3733     -454.53703     -472.9807      -3.3344467    
    220000   298.24554     -3954.4878     -3443.3051     -3954.6094      0              460.48744      18.081502      23.465568      22.05939       9359.6386     -56.965091     -138.82837      1577.2558      76.082669     -736.82375     -493.53714    
    221000   299.65699     -3958.3108     -3444.709      -3959.6717      0              3233.8601      18.051201      23.426245      22.022423      9312.6632      3867.1156      3025.3319      2809.1328     -59.665227      161.66834      591.04901    
    222000   297.54404     -3957.0003     -3447.02       -3957.156       0              4255.6342      18.062796      23.441292      22.036569      9330.6201      5312.0388      4746.4574      2708.4065      1200.6754     -659.82053      1479.8943    
    223000   307.8942      -3987.359      -3459.6388     -3987.4968      0              2242.0178      18.092382      23.479688      22.072664      9376.5449      1454.7734      3372.9799      1898.3        -401.10274      1044.1521      911.02614    
    224000   311.58463     -3981.1551     -3447.1097     -3983.2135      0              4689.9623      18.095382      23.483581      22.076324      9381.2098      3920.7013      4694.2334      5454.9523     -353.5159       112.66891     -1993.7828    
    225000   301.27019     -3934.2722     -3417.9054     -3941.3718      0              5356.3862      18.052429      23.427838      22.023922      9314.5638      6091.5874      3658.0321      6319.5389     -517.10778     -1171.352      -819.46076    
    226000   312.3285      -3961.8283     -3426.5079     -3964.8508      0              794.17308      18.09116       23.478102      22.071173      9374.6449      1067.1497     -551.98664      1867.3562     -998.91024      436.43111      465.0047     
    227000   314.61353     -3970.7171     -3431.4802     -3971.0452      0              6764.3849      18.069015      23.449363      22.044157      9340.2613      6317.2476      7328.2566      6647.6506      56.930565     -324.10643     -1483.5479    
    228000   306.62134     -3987.8717     -3462.3332     -3988.8532      0              5420.079       18.065105      23.444288      22.039386      9334.1984      6676.7164      4921.6643      4661.8562     -1070.1999      85.68959      -1073.7674    
    229000   280.21799     -3978.7367     -3498.4526     -3979.3044      0             -3296.8987      18.058603      23.435851      22.031454      9324.1239     -4036.0143     -3328.9134     -2525.7683     -123.72091     -89.534868      24.679577    
    230000   289.14425     -3992.5676     -3496.9843     -3994.112       0              828.5716       18.075476      23.457748      22.052039      9350.284       1380.4554      425.76249      679.4969      -154.47662      97.240636     -287.64046    
    231000   276.77718     -3997.1845     -3522.7978     -3997.8295      0             -7123.7972      17.979064      23.332627      21.934416      9201.4612     -8539.1743     -5566.1164     -7266.101       443.27293     -7.2430254     -702.50038    
    232000   326.40273     -3957.5813     -3398.1382     -3958.3316      0              4885.9912      18.075898      23.458295      22.052553      9350.9388      3272.9361      4850.4048      6534.6327     -710.44552     -435.80858     -369.06312    
    233000   308.77895     -3979.654      -3450.4175     -3980.8973      0              1795.3473      18.06728       23.447112      22.04204       9337.5711      810.45152      1169.619       3405.9714      63.715308     -823.47719     -332.32135    
    234000   292.04347     -3947.0971     -3446.5446     -3948.2216      0              4303.2037      17.980799      23.334879      21.936533      9204.1259      3535.3436      6391.4053      2982.8623      223.01148     -2399.6384      2630.2474    
    235000   284.19402     -3954.046      -3466.9471     -3954.0747      0              1836.3634      18.065502      23.444803      22.03987       9334.8136      3400.1073      1274.8007      834.18221     -1011.3785      369.29585      495.48041    
    236000   297.86592     -3980.33       -3469.798      -3980.987       0             -1336.9665      18.071676      23.452816      22.047402      9344.3877     -931.09833     -2134.513      -945.2882      -177.51829      946.33633      1468.1598    
    237000   301.00999     -3982.0625     -3466.1417     -3986.2692      0              3564.8871      18.150381      23.554956      22.143422      9467.0089      4232.3692      2359.0614      4103.2307     -1679.6351      129.98129      725.11839    
    238000   300.77497     -3967.0211     -3451.5031     -3967.1684      0             -1941.4543      18.061853      23.440068      22.035419      9329.1588     -2503.1994     -1391.4395     -1929.7241     -439.08582     -274.65728      283.95817    
    239000   282.71474     -3952.1104     -3467.547      -3952.7743      0             -1051.5706      18.125585      23.522777      22.113171      9428.262      -422.25132     -2069.7129     -662.74751     -214.90382     -1103.3218     -394.30325    
    240000   303.52315     -3922.094      -3401.8657     -3922.3807      0             -2096.3386      18.12524       23.52233       22.112751      9427.7247     -1116.3701     -3372.896      -1799.7496      2443.0619     -709.44203      515.89959    
    241000   310.22259     -3932.2959     -3400.585      -3936.8223      0              6887.4127      18.104529      23.495452      22.087483      9395.4432      6622.3987      5291.6058      8748.2335      117.37682      303.57027      1278.4648    
    242000   311.03315     -3993.0681     -3459.9679     -3993.0702      0              4687.2129      18.026083      23.393647      21.991779      9273.8418      5601.3646      3228.0063      5232.268      -619.52444     -347.06388     -600.10176    
    243000   306.15772     -3975.8657     -3451.1218     -3982.6065      0              2883.9028      18.07906       23.462399      22.056411      9355.8468      4013.3188      2200.9309      2437.4588     -1866.1183     -216.07955     -518.73618    
    244000   307.04257     -3951.5974     -3425.3369     -3953.8856      0              1460.0215      18.088318      23.474414      22.067706      9370.2273      1519.5307      1867.7416      992.79229      1201.935      -391.58402     -740.81831    
    245000   300.61524     -3977.0896     -3461.8454     -3977.9773      0              945.65775      18.153207      23.558624      22.14687       9471.4315      1605.0873      779.72516      452.16075      1065.9445     -702.08074     -15.101848    
    246000   283.35565     -3966.6673     -3481.0054     -3966.6754      0             -2744.4472      18.048129      23.422257      22.018675      9307.9089     -3411.4715     -2137.9238     -2683.9463      313.44787     -561.83105      1601.714     
    247000   289.20126     -3943.1865     -3447.5054     -3943.1927      0              4927.4588      17.974733      23.327007      21.929132      9194.8132      5413.349       4881.5521      4487.4754     -1063.6977      513.09288     -766.77677    
    248000   290.28034     -3976.8675     -3479.337      -3977.7028      0             -1144.2761      18.027294      23.395218      21.993256      9275.7102     -2375.8144     -659.90776     -397.10609      897.95721      521.21911     -1178.4214    
    249000   299.97177     -3947.9311     -3433.7898     -3948.2678      0             -13.36601       18.057694      23.43467       22.030344      9322.715       546.12292     -287.22608     -298.99486      70.193608     -644.37871     -779.69982    
    250000   295.60413     -3958.6522     -3451.9968     -3961.3838      0              2219.376       18.040341      23.41215       22.009174      9295.8643      953.80105      1691.1573      4013.1696     -333.41147      379.55094      333.1217     
    251000   300.99214     -3914.5826     -3398.6924     -3914.6257      0              12023.889      17.957638      23.304822      21.908277      9168.6043      14354.93       9564.4579      12152.279     -1458.6078     -138.44812      331.1151     
    252000   334.93367     -3989.7353     -3415.6704     -3992.3514      0             -9334.1773      17.976562      23.32938       21.931364      9197.6203     -10970.557     -11795.409     -5236.5662     -2011.5379     -857.57407     -1006.3015    
    253000   296.69736     -3949.5162     -3440.9871     -3956.1441      0             -1688.8118      18.083022      23.46754       22.061244      9361.9987     -1664.155      -1492.1225     -1910.1578     -656.81294     -822.86099     -117.69692    
    254000   309.80633     -3910.9214     -3379.9239     -3913.466       0             -2122.4972      18.039772      23.411411      22.008479      9294.9844     -1866.2057     -999.54313     -3501.7428     -1142.1488     -185.19842      1234.8229    
    255000   305.12451     -3973.2183     -3450.2453     -3982.5712      0             -5798.2903      18.060728      23.438608      22.034046      9327.4149     -6205.6465     -4878.0252     -6311.1991     -1080.471       511.13414      309.65306    
    256000   301.51466     -3921.5807     -3404.7949     -3921.7419      0              6045.9471      17.991217      23.348399      21.949243      9220.1333      6556.4726      5151.5411      6429.8276     -185.65824      111.0589       2063.7279    
    257000   307.38714     -3927.4221     -3400.571      -3928.1706      0             -2353.9067      18.027614      23.395634      21.993647      9276.2044     -2119.7685     -2631.6877     -2310.2638     -543.96359     -145.63194      1060.4787    
    258000   289.05513     -3969.2495     -3473.8189     -3973.4976      0             -6484.8826      18.003421      23.364237      21.964131      9238.9084     -7357.9253     -6088.3233     -6008.399      -700.46157     -1144.296       649.63209    
    259000   309.4179      -3921.5807     -3391.249      -3922.3112      0             -1849.8169      18.108036      23.500003      22.091761      9400.9036     -3508.5306     -1198.6186     -842.30152     -1330.3203     -142.21324     -589.43177    
    260000   307.66427     -3975.4816     -3448.1556     -3975.6728      0              294.98712      18.041831      23.414084      22.010992      9298.1682     -1609.7089      2739.891      -245.22064     -1102.6648      1248.5632      40.882969    
    261000   310.44907     -3962.8078     -3430.7088     -3962.8341      0              4846.7851      18.044042      23.416954      22.013689      9301.5872      5262.7606      5440.7826      3836.812      -388.15088     -74.408541     -86.681213    
    262000   302.81748     -3991.3802     -3472.3614     -3991.9526      0             -3358.4059      18.055394      23.431686      22.027539      9319.1543     -3293.9336     -3402.3287     -3378.9554     -142.5107       413.48563     -1593.7501    
    263000   320.69114     -3986.1819     -3436.5283     -3986.5756      0              6369.206       18.018093      23.383277      21.982031      9261.5145      6230.5314      6192.7033      6684.3833     -566.69322      1316.0617      910.12535    
    264000   308.57323     -3968.903      -3440.019      -3969.632       0             -3731.7143      17.985621      23.341137      21.942416      9211.5328     -4641.7291     -2503.3918     -4050.022       1155.0689      712.07753     -1209.6762    
    265000   292.24965     -3960.1737     -3459.2679     -3968.9978      0             -14154.391      18.05064       23.425516      22.021739      9311.7943     -15361.482     -11829.614     -15272.077     -2940.821       1200.4091     -2980.1088    
    266000   292.36239     -3959.9429     -3458.8437     -3967.8243      0             -1367.7784      17.953016      23.298823      21.902637      9161.5258     -1588.6621     -1313.781      -1200.8922      756.79485      995.7261      -458.05315    
    267000   288.88694     -3963.2991     -3468.1567     -3969.9086      0             -13414.291      18.027776      23.395844      21.993845      9276.4546     -13462.051     -13440.57      -13340.254     -3025.4267      403.26843     -1726.2658    
    268000   278.70743     -3972.2871     -3494.5921     -3975.0856      0             -5656.5677      18.044449      23.417482      22.014186      9302.2168     -5973.5151     -5950.1424     -5046.0456      798.20802      399.1668       512.95909    
    269000   292.71743     -3971.371      -3469.6634     -3971.7352      0             -3667.4556      18.031764      23.40102       21.99871       9282.6126     -2940.26       -3899.5399     -4162.5668     -405.06369     -233.01771     -339.72278    
    270000   300.72532     -3978.5002     -3463.0673     -3980.8349      0             -3186.7456      18.091827      23.478968      22.071987      9375.6819     -4771.0991     -3061.3601     -1727.7777      31.626798      457.66032     -281.11905    
    271000   311.44972     -3921.66       -3387.8458     -3928.5135      0             -6622.0636      17.987016      23.342948      21.944118      9213.6764     -6596.577      -7477.0042     -5792.6096      220.77163      324.14699     -705.52529    
    272000   306.78318     -3946.7488     -3420.9329     -3947.1058      0             -7283.7058      18.021245      23.387368      21.985877      9266.3764     -7693.1257     -7313.3868     -6844.6048      1353.5469     -1305.6798     -219.91115    
    273000   311.9561      -3944.3282     -3409.6461     -3944.8637      0             -6170.9923      18.032783      23.402342      21.999953      9284.1857     -6110.9331     -8718.3214     -3683.7224     -127.87747      933.69578     -220.10693    
    274000   306.22695     -3959.0991     -3434.2366     -3963.2167      0              3016.2409      18.125231      23.522318      22.112739      9427.7096      5340.6725      2295.452       1412.5983     -725.00682     -544.06657      460.96584    
    275000   295.70563     -3959.7069     -3452.8776     -3959.9165      0              693.9081       18.053949      23.429811      22.025776      9316.9165      1695.072       88.77149       297.88077     -154.88529      116.27159     -342.26322    
    276000   302.21188     -3949.0345     -3431.0536     -3953.594       0              4445.6066      18.073894      23.455695      22.050109      9347.8296      5428.176       3155.4255      4753.2182     -24.221134     -539.80294     -91.492891    
    277000   291.02759     -3974.8112     -3475.9998     -3974.9233      0             -676.75112      18.123675      23.520299      22.110842      9425.2829     -1578.9486     -145.54607     -305.75873      517.86006     -562.20265     -304.67732    
    278000   321.21644     -3930.437      -3379.883      -3930.6931      0             -1576.5097      18.085573      23.470851      22.064357      9365.9623     -2668.8241     -1413.5251     -647.17973      1134.2498     -476.77281      470.44467    
    279000   318.62439     -3966.9208     -3420.8095     -3970.3319      0             -2716.0463      18.029258      23.397767      21.995653      9278.7426     -2978.3536     -3148.9976     -2020.7876      501.84379     -577.40161      91.956175    
    280000   302.79223     -4018.8458     -3499.8703     -4018.8619      0              4782.9774      18.057966      23.435024      22.030677      9323.1375      6317.7487      4582.2395      3448.9439      1219.6736      445.51622      159.27301    
    281000   291.86529     -3960.96       -3460.7129     -3961.2658      0              2553.3395      18.094938      23.483005      22.075782      9380.5191      2809.9129      1649.9806      3200.125       872.9489       885.33076     -543.46666    
    282000   312.12187     -3972.7379     -3437.7717     -3973.0509      0              5991.843       18.049923      23.424586      22.020864      9310.6854      7138.9826      4710.3656      6126.1808      744.76858      485.4418      -2227.1966    
    283000   292.07598     -3930.3797     -3429.7714     -3931.0727      0             -88.161685      18.057204      23.434035      22.029747      9321.9572      453.64787     -384.08957     -334.04336     -194.03055      1081.3067     -1035.7388    
    284000   301.36275     -3964.0493     -3447.5239     -3964.072       0              3034.7127      18.010905      23.37395       21.973262      9250.4356      1808.9693      2017.4727      5277.6962      1081.0895      226.82693     -848.43915    
    285000   300.85488     -3967.2738     -3451.6188     -3967.4983      0             -6294.7584      18.066003      23.445454      22.040481      9335.5903     -7496.4469     -4432.8018     -6955.0266     -242.72234      774.97078      2581.4822    
    286000   307.46168     -3926.5301     -3399.5513     -3927.0491      0             -3503.4838      17.982808      23.337486      21.938983      9207.2102     -4196.0489     -1745.2303     -4569.1723      1037.6297      314.84106      489.13035    
    287000   298.72677     -3971.7229     -3459.7154     -3974.1054      0              4959.9689      18.080373      23.464103      22.058013      9357.8852      4824.3566      5183.974       4871.5761      252.48596     -308.16324      571.23231    
    288000   308.22162     -3952.3473     -3424.066      -3958.0734      0             -7160.6732      18.069627      23.450157      22.044903      9341.2104     -6609.7345     -6745.8127     -8126.4725      986.33387      310.69359      1251.6941    
    289000   325.03013     -3973.3317     -3416.2412     -3978.2853      0             -3281.4892      18.033286      23.402995      22.000567      9284.9628     -4459.7286     -2803.1652     -2581.5739      535.6882      -221.36556      285.10885    
    290000   297.38242     -3944.5425     -3434.8392     -3946.0912      0             -6117.4762      18.125352      23.522475      22.112888      9427.8993     -8092.9442     -4990.434      -5269.0504     -3.356533       718.38746      377.74936    
    291000   300.03893     -3947.6106     -3433.3541     -3952.803       0              6798.0168      18.027131      23.395007      21.993058      9275.4591      6475.3998      6965.2276      6953.4231      271.80759      879.91276     -88.611868    
    292000   306.68576     -3990.0111     -3464.3622     -3990.71        0              4851.9271      18.050298      23.425072      22.021321      9311.2652      5560.8022      5864.107       3130.8721     -504.52053      605.92012      252.00663    
    293000   293.03519     -3920.693      -3418.4407     -3924.815       0             -8196.4178      18.063149      23.44175       22.037         9331.1672     -10852.422     -6123.1166     -7613.7153      974.35491     -1772.819      -275.28751    
    294000   302.92205     -3944.5362     -3425.3381     -3944.6567      0             -4638.2522      18.090937      23.477812      22.070901      9374.2975     -5221.8015     -5381.6839     -3311.2712      458.85869      1209.0091     -816.49126    
    295000   291.53839     -3979.7325     -3480.0456     -3981.4288      0              2797.856       18.034602      23.404702      22.002172      9286.9953      2687.8973      3223.0524      2482.6184     -334.22795      83.4411       -89.450316    
    296000   293.06956     -3942.7383     -3440.4271     -3943.032       0              2069.963       18.100305      23.48997       22.08233       9388.868       2120.6409      1949.6358      2139.6123     -589.12419      464.43773     -167.20789    
    297000   308.82706     -3986.628      -3457.309      -3986.6364      0             -9447.2372      18.094355      23.482248      22.075071      9379.612      -8777.663      -10490.143     -9073.9055     -1775.5951      3507.2324     -1248.3726    
    298000   285.18516     -3947.0404     -3458.2428     -3947.9464      0              1619.4867      18.11637       23.510819      22.10193       9413.8905      1921.5746      679.90766      2256.9778     -6.0092198     -467.5744      -1018.3172    
    299000   307.47564     -3951.9046     -3424.9019     -3955.0891      0             -8972.4912      18.151642      23.556594      22.144961      9468.9833     -9237.3701     -8298.0871     -9382.0165     -1195.2231     -910.40996      365.20678    
    300000   293.60183     -3942.2385     -3439.015      -3943.0533      0              3034.4778      18.0571        23.4339        22.02962       9321.7957      3326.1923      3831.7245      1945.5165      830.88868     -768.46805     -660.582      
    301000   300.91033     -3934.7414     -3418.9913     -3934.8433      0              326.52306      18.10621       23.497633      22.089534      9398.06        411.25092     -723.96382      1292.2821     -284.79044      1103.3069     -469.7035     
    302000   305.78985     -3910.122      -3386.0087     -3911.1946      0             -257.54344      18.077203      23.459989      22.054146      9352.9648     -1187.2462     -134.84399      549.45989     -69.218722      518.88009      780.19814    
    303000   307.27391     -4005.2905     -3478.6335     -4005.3327      0              2280.894       18.075231      23.457429      22.051739      9349.9031      1672.1204      3110.6175      2059.9441     -244.93593      1146.9884      428.21252    
    304000   302.12856     -3955.589      -3437.751      -3956.6091      0             -10521.536      18.11953       23.51492       22.105785      9418.8174     -10928.13      -10914.377     -9722.0995     -1408.7252      212.25528     -1485.9318    
    305000   290.54211     -3976.8174     -3478.8381     -3994.7005      0              7026.8791      18.014768      23.378963      21.977975      9256.3887      8845.609       4645.5011      7589.5271      969.7794       1450.4946      676.69604    
[...]
   7432000   310.5235      -3975.7671     -3443.5405     -3976.3201      0              498.97325      18.080974      23.464883      22.058746      9358.8189      1651.4703      895.4139      -1049.9645      617.77829      300.6422       1473.5111    
   7433000   310.42742     -3981.1992     -3449.1373     -3981.3466      0             -889.45177      18.073422      23.455081      22.049532      9347.0959     -1741.2441     -85.437823     -841.67335      733.3636       298.70252     -308.50834    
   7434000   307.72711     -4021.1993     -3493.7656     -4022.2876      0              5693.5343      17.989547      23.346231      21.947205      9217.5654      5296.0791      7164.3933      4620.1304     -367.01365      64.967368     -246.09889    
   7435000   284.68401     -4017.388      -3529.4494     -4018.362       0             -2374.6334      18.011781      23.375086      21.97433       9251.7848     -3351.4204     -1940.981      -1831.4987      66.284886     -830.64096     -305.4423     
   7436000   296.68472     -4004.0413     -3495.5338     -4004.3531      0             -5433.2395      18.097601      23.48646       22.079031      9384.6606     -6382.8118     -5521.8994     -4395.0071      862.63538     -577.68565      249.76334    
   7437000   294.62103     -4000.3978     -3495.4274     -4000.8488      0              6152.2133      18.066029      23.445488      22.040513      9335.631       7114.8922      6360.2308      4981.517      -2849.4237     -503.06773     -569.6646     
   7438000   285.12285     -3946.4185     -3457.7277     -3950.1648      0             -10332.353      18.085009      23.470119      22.063668      9365.085      -11831.192     -13556.191     -5609.6759      1455.3417      711.8762      -424.96645    
   7439000   286.97365     -3999.2893     -3507.4263     -4004.1435      0              5049.8933      18.103967      23.494722      22.086798      9394.5681      3392.3286      6083.5771      5673.7742     -831.78956      629.44531      428.62813    
   7440000   315.69722     -4008.1737     -3467.0794     -4008.4197      0              1309.2504      18.107547      23.499368      22.091165      9400.1421      1062.3736      1766.814       1098.5637      64.294623     -68.260604      768.33276    
   7441000   294.22239     -3963.8562     -3459.569      -3964.4493      0              5275.5397      18.125263      23.522359      22.112778      9427.7599      4446.7668      6241.9724      5137.88        879.49825      199.29975      452.04718    
   7442000   289.72506     -3974.4486     -3477.8698     -3974.7081      0              2757.6744      18.095246      23.483405      22.076158      9380.9983      2867.7498      2156.0736      3249.1997     -182.04619     -518.2973      -172.98625    
   7443000   305.38784     -3980.5969     -3457.1726     -3980.6277      0              4970.8279      18.112812      23.506201      22.097588      9408.3441      4703.4804      5258.5375      4950.4656      190.25438     -308.41262      1494.692     
   7444000   301.80702     -3974.2483     -3456.9614     -3974.2757      0             -7067.0897      18.055775      23.432181      22.028004      9319.744      -6445.7499     -7644.3745     -7111.1447      551.80215     -1507.5503     -944.31156    
   7445000   290.7635      -3974.7894     -3476.4307     -3975.9843      0              4005.1038      18.108016      23.499977      22.091737      9400.8727      2368.7177      6870.5806      2776.0131     -58.126584      469.48558      280.34848    
   7446000   289.00199     -3967.6993     -3472.3598     -3975.6742      0             -2154.7097      18.088605      23.474786      22.068056      9370.6733     -2271.0255     -3081.3671     -1111.7364     -1487.0476      154.34837     -755.65518    
   7447000   300.91057     -3968.515      -3452.7645     -3974.7583      0             -8901.0304      18.058718      23.436         22.031594      9324.3019     -10674.099     -6710.1017     -9318.8905     -2296.7993      1109.3624      1145.1062    
   7448000   306.44841     -3947.0912     -3421.8491     -3968.2025      0             -14183.17       18.132172      23.531326      22.121207      9438.545      -11591         -13748.614     -17209.897      1000.1938      967.21691      3553.9225    
   7449000   285.62434     -3954.2356     -3464.6853     -3966.4533      0             -7916.6621      18.183827      23.598362      22.184227      9519.4411     -10094.204     -8110.4267     -5545.3554      225.90653     -1727.6501      579.99323    
   7450000   292.91414     -3978.2973     -3476.2525     -3978.7103      0              6804.732       18.121369      23.517305      22.108027      9421.6843      6969.4276      9475.804       3968.9645     -879.25475      112.77684      512.36648    
   7451000   298.28168     -3950.6966     -3439.452      -3950.8522      0             -4187.7351      18.065769      23.44515       22.040196      9335.2276     -3208.4894     -3981.9813     -5372.7345      71.180056      1108.9526     -568.75592    
   7452000   294.12341     -3966.1698     -3462.0524     -3966.2133      0              2563.2501      18.024252      23.39127       21.989545      9271.015       3196.5115      3158.1277      1335.111      -788.54775      816.08503     -10.779198    
   7453000   301.98712     -3953.5299     -3435.9343     -3954.7203      0              374.77672      17.912399      23.246111      21.853085      9099.4849     -197.50424      85.408046      1236.4264      1018.705      -543.26546      189.81864    
   7454000   294.71269     -3952.489      -3447.3616     -3952.8193      0              4734.8811      18.027849      23.395939      21.993933      9276.567       5453.2671      2871.3183      5880.0579      331.44784     -6.6577186     -869.38451    
   7455000   297.92691     -3930.2349     -3419.5983     -3930.5108      0             -239.23996      18.10922       23.501539      22.093206      9402.7477     -1232.5261     -268.41229      783.21853      50.609626      96.199122     -342.55922    
   7456000   310.05666     -3928.8797     -3397.4532     -3930.2345      0             -3064.7759      18.121338      23.517266      22.10799       9421.6367     -3303.5041     -4126.1881     -1764.6355      250.08666      1704.6362     -428.73903    
   7457000   297.76482     -3996.4922     -3486.1335     -3997.0285      0              551.03553      18.036024      23.406548      22.003907      9289.1924      653.41268      359.20884      640.48505      377.20372      696.7826      -843.24389    
   7458000   308.94612     -3939.4864     -3409.9633     -3939.4954      0              5760.7644      18.031423      23.400578      21.998294      9282.0862      5592.9531      5034.6563      6654.6839      184.10369      214.80933     -845.05124    
   7459000   292.15005     -3987.5113     -3486.7761     -3989.4955      0              6704.0052      18.089206      23.475566      22.068789      9371.6071      5785.1359      6978.7902      7348.0896      1218.2541      1035.2621      368.99055    
   7460000   291.44604     -3943.2332     -3443.7046     -3946.2566      0             -12028.8        18.127041      23.524667      22.114948      9430.5353     -10572.107     -9961.6642     -15552.628      1091.9109     -550.53251      1374.9671    
   7461000   308.09805     -3975.8873     -3447.8178     -3978.3346      0              1164.2652      18.121898      23.517993      22.108674      9422.5108      1869.4679      603.24892      1020.0788      765.94833     -272.10524     -104.21007    
   7462000   303.7828      -3997.2467     -3476.5733     -3999.9954      0             -3969.9738      18.054677      23.430755      22.026663      9318.0429     -3575.206      -5183.1367     -3151.5788      1731.6396      371.91236      1212.8084    
   7463000   310.80789     -3935.9792     -3403.2651     -3939.6476      0             -2825.892       18.114485      23.508372      22.099629      9410.9514     -4019.6923     -3036.8097     -1421.1739      147.55682      86.823267      286.2963     
   7464000   321.7386      -3942.2426     -3390.7936     -3944.1574      0              9128.2334      17.956757      23.303678      21.907202      9167.2547      8619.1033      9097.5834      9668.0135     -355.23168      2069.5226     -1009.1705    
   7465000   287.02261     -3967.7733     -3475.8264     -3971.5849      0              7552.1031      18.063383      23.442054      22.037285      9331.5298      7257.6987      8374.4056      7024.2051     -876.00155     -37.795266      337.8608     
   7466000   296.89819     -3984.0119     -3475.1386     -3984.3202      0             -1823.5307      18.087817      23.473764      22.067095      9369.449      -771.3747      -1639.6455     -3059.5717     -801.96379     -297.86507     -283.07105    
   7467000   290.38873     -3980.0289     -3482.3126     -3981.9902      0              1719.4441      18.120745      23.516496      22.107267      9420.712       2282.5375      1797.538       1078.257      -523.03436     -345.57934     -330.36547    
   7468000   308.29378     -3989.7301     -3461.3251     -3989.8655      0              630.87932      18.091059      23.477971      22.07105       9374.488       591.78318     -177.31874      1478.1735     -825.55678      647.89026      592.13948    
   7469000   295.79821     -3974.3352     -3467.3472     -3975.8641      0              5984.9537      18.098479      23.4876        22.080102      9386.0269      5280.7967      7873.1964      4800.8678      1385.1377     -513.82149     -248.07723    
   7470000   306.00837     -3985.7058     -3461.2179     -3985.8312      0             -502.34657      18.106335      23.497795      22.089686      9398.2544     -1266.0838     -1810.2992      1569.3432     -1158.1583     -426.3167       538.63337    
   7471000   301.61054     -3942.6893     -3425.7392     -3943.1316      0             -957.10775      18.197266      23.615803      22.200622      9540.5633     -3246.2492      519.12225     -144.19626     -647.19918      597.25347     -260.21189    
   7472000   314.16121     -3960.3816     -3421.92       -3960.471       0              1929.0089      18.090839      23.477685      22.070782      9374.1457      1698.1758      2121.1159      1967.735      -303.40043     -474.21009      624.86798    
   7473000   288.55833     -3949.9845     -3455.4054     -3950.2925      0              4112.0735      18.045812      23.41925       22.015848      9304.3243      4061.6885      4335.508       3939.024      -1093.904      -4.8628271      455.76759    
   7474000   297.32096     -3933.0445     -3423.4465     -3933.2064      0              1743.2958      17.995797      23.354343      21.95483       9227.1766      2291.8361      2637.4466      300.60462     -1212.045      -475.60536     -576.51777    
   7475000   284.83258     -3933.528      -3445.3347     -3936.1463      0              1511.4837      18.066171      23.445671      22.040686      9335.8506      1476.6724      2174.8023      882.9764       718.80363     -333.37177      91.485036    
   7476000   289.07289     -3935.282      -3439.8209     -3936.3931      0              6337.8112      18.019173      23.38468       21.983349      9263.181       5422.8612      7227.7552      6362.8173     -523.11078     -123.49447     -855.96363    
   7477000   304.59264     -3968.5342     -3446.4728     -3969.3104      0             -324.50604      18.032102      23.401458      21.999123      9283.1346     -226.66834     -14.986107     -731.86367      1161.7032      712.60066     -7.1659414    
   7478000   322.35436     -3933.9897     -3381.4853     -3934.458       0             -2142.2067      18.175479      23.587527      22.174041      9506.3352     -3453.1804     -1474.9891     -1498.4505      613.64143     -674.52444      153.96592    
   7479000   296.94189     -3944.9211     -3435.9728     -3945.3743      0              682.52134      18.139083      23.540294      22.129639      9449.3414      784.09947      2471.6758     -1208.2112      188.25241     -563.3002       452.6907     
   7480000   299.11901     -3942.7236     -3430.0438     -3946.2914      0             -3071.4735      18.119493      23.514872      22.105739      9418.7594     -3594.2324     -3659.6775     -1960.5107     -465.56525     -268.09587      415.02413    
   7481000   299.90696     -3960.456      -3446.4258     -3960.5269      0             -1604.1087      18.087694      23.473604      22.066945      9369.2575     -2137.8876     -2033.9602     -640.47833     -2232.1208     -277.94045      285.98363    
   7482000   306.72047     -3971.5923     -3445.8839     -3972.5666      0              343.91839      18.108778      23.500966      22.092667      9402.0593      1570.4426     -5.8692626     -532.81821     -212.50449      1002.3211     -461.04274    
   7483000   298.20194     -3933.7554     -3422.6474     -3939.3455      0             -4229.1045      18.001796      23.362128      21.962149      9236.4067     -5097.1421     -3011.3102     -4578.8612     -612.8479       1071.4082     -739.80067    
   7484000   304.45237     -3935.6816     -3413.8607     -3937.2844      0             -1680.5544      18.031108      23.400168      21.997909      9281.5989     -1446.6813     -1564.1976     -2030.7843      603.75356      699.29329     -89.465846    
   7485000   284.92951     -3946.0733     -3457.7139     -3946.2961      0             -1587.69        18.001414      23.361632      21.961683      9235.8193     -927.85663     -1352.2926     -2482.9206     -589.54959      563.99937     -87.711107    
   7486000   301.44834     -3965.9222     -3449.25       -3966.1071      0             -3701.242       18.018548      23.383868      21.982586      9262.2167     -3247.4121     -2664.0721     -5192.2419     -233.27293      164.73652     -15.540598    
   7487000   302.94134     -3937.5088     -3418.2778     -3942.8415      0             -8618.3665      18.075227      23.457425      22.051735      9349.8977     -6089.6961     -11477.951     -8287.4523     -1186.8433     -629.3462       391.49589    
   7488000   305.95913     -3930.8793     -3406.4758     -3935.8748      0              8697.1384      18.079941      23.463542      22.057486      9357.2145      7207.0021      11733.474      7150.9389      152.60727     -37.160434     -297.0748     
   7489000   304.20018     -3968.1101     -3446.7214     -3968.1144      0              3730.1307      18.016361      23.38103       21.979918      9258.8442      2996.0974      4355.0232      3839.2713     -22.855856      624.9443       787.8051     
   7490000   307.01322     -3944.6825     -3418.4724     -3945.0302      0              1305.6461      18.113982      23.507719      22.099015      9410.1671      2407.4525      1831.11       -321.62419      1482.4332      72.50057       226.57912    
   7491000   296.50796     -3977.6144     -3469.4099     -3981.0725      0              4161.0527      17.981454      23.335729      21.937332      9205.1318      4510.8296      4301.9661      3670.3623      61.757133     -48.346133     -433.2774     
   7492000   285.22452     -3943.0119     -3454.1468     -3943.2822      0             -1481.94        18.160338      23.567879      22.15557       9482.5981     -1065.2109     -2039.7015     -1340.9076     -43.639869     -693.15888     -10.738658    
   7493000   300.62273     -3955.4194     -3440.1623     -3959.2855      0              2746.3556      18.014908      23.379144      21.978145      9256.6042      1391.4201      4238.5376      2609.1091      1241.0835     -233.39615      265.16232    
   7494000   285.49475     -3973.7679     -3484.4397     -3973.8928      0             -3457.7922      18.066418      23.445993      22.040988      9336.2344     -4099.691      -2345.3472     -3928.3384     -219.35973      262.57435      1554.64      
   7495000   293.22764     -3965.6535     -3463.0714     -3968.2604      0              2666.1224      18.037376      23.408302      22.005556      9291.2814      2503.6659      2729.0622      2765.6393      110.09458     -252.57101      698.33241    
   7496000   314.85294     -3958.8605     -3419.2133     -3961.9166      0              9025.1421      18.012276      23.375729      21.974935      9252.5479      9046.5762      9017.8214      9011.0287     -327.24062     -1089.2117     -457.97379    
   7497000   304.9235      -3948.1335     -3425.505      -3949.2403      0              6997.9684      17.985397      23.340846      21.942143      9211.1886      7178.7181      9109.2563      4705.9308      550.2103      -99.599479      776.32234    
   7498000   294.44162     -3956.5968     -3451.9339     -3959.1265      0              10869.041      17.975241      23.327666      21.929752      9195.5929      13088.274      13154.098      6364.7532      3135.5752      587.39202     -45.453653    
   7499000   287.82518     -3945.4124     -3452.0899     -3952.41        0             -6544.0387      18.02804       23.396187      21.994167      9276.8624     -8917.4115     -7150.8481     -3563.8566      700.37622     -888.96172     -257.17335    
   7500000   312.61054     -3959.8958     -3424.092      -3960.2934      0              3590.9169      17.96944       23.320137      21.922675      9186.6927      4357.2313      3384.7853      3030.7342     -898.81806      566.77457     -19.277236    
Loop time of 27008.9 on 32 procs for 7500000 steps with 864 atoms

Performance: 47.984 ns/day, 0.500 hours/ns, 277.686 timesteps/s, 239.921 katom-step/s
99.4% CPU use with 32 MPI tasks x 1 OpenMP threads

MPI task timing breakdown:
Section |  min time  |  avg time  |  max time  |%varavg| %total
---------------------------------------------------------------
Pair    | 1403.1     | 1631.3     | 1893.3     | 408.0 |  6.04
Bond    | 3.2543     | 4.0506     | 5.323      |  21.5 |  0.01
Kspace  | 1630.5     | 1914.7     | 2237.2     | 412.8 |  7.09
Neigh   | 113.42     | 122.02     | 142.9      | 105.5 |  0.45
Comm    | 729.66     | 905.92     | 999.01     | 309.1 |  3.35
Output  | 4.9986     | 5.003      | 5.0296     |   0.3 |  0.02
Modify  | 22344      | 22363      | 22405      |  12.6 | 82.80
Other   |            | 63.3       |            |       |  0.23

Nlocal:             27 ave          33 max          18 min
Histogram: 1 1 2 2 6 1 7 4 4 4
Nghost:        2539.91 ave        2617 max        2466 min
Histogram: 4 2 2 4 6 2 3 4 3 2
Neighs:        6661.78 ave        8295 max        4619 min
Histogram: 1 2 3 1 6 6 2 6 2 3

Total # of neighbors = 213177
Ave neighs/atom = 246.73264
Ave special neighs/atom = 2
Neighbor list builds = 413165
Dangerous builds = 55
System init for write_data ...
PPPM initialization ...
  extracting TIP4P info from pair style
  using 12-bit tables for long-range coulomb (src/kspace.cpp:342)
  G vector (1/distance) = 0.32866164
  grid = 15 16 16
  stencil order = 5
  estimated absolute RMS force accuracy = 0.028031563
  estimated relative force accuracy = 8.4416219e-05
  using double precision KISS FFT
  3d grid and FFT values/proc = 1694 128
Generated 0 of 1 mixed pair_coeff terms from geometric mixing rule
WARNING: Not all mixed pair coeffs generated from mixing. Use write_data with 'pair ij' option to store all pair coeffs. (src/write_data.cpp:364)
System init for write_restart ...
PPPM initialization ...
  extracting TIP4P info from pair style
  using 12-bit tables for long-range coulomb (src/kspace.cpp:342)
  G vector (1/distance) = 0.32866164
  grid = 15 16 16
  stencil order = 5
  estimated absolute RMS force accuracy = 0.028031563
  estimated relative force accuracy = 8.4416219e-05
  using double precision KISS FFT
  3d grid and FFT values/proc = 1694 128
Generated 0 of 1 mixed pair_coeff terms from geometric mixing rule
Total wall time: 7:30:09
