9
Properties=species:S:1:pos:R:3:momenta:R:3:forces:R:3 R1=H R2=H R3=CH3 R4=CH3 leaving_group=Cl nucleophile=Cl rxn=sn2 config=rcc label=H_H_CH3_CH3_Cl_Cl_sn2_rcc conformation=0 reactant_id=H_H_CH3_CH3_Cl_none_-_r product_id=H_H_CH3_CH3_none_Cl_sn2_pc mp2_author_energy=-29302.391748605172 mp2_my_energy=0 hash=59123 address=T id=71 energy=-17370.412368016237 pbc="F F F"
C        0.12542541       0.11270554      -0.00029240       0.02900470       0.42764981       0.09540764      -0.09214561       1.11788396      -0.00082481
C        1.62503867       0.00847468       0.00156754      -0.41712158       0.88705766      -0.82767973      -0.06338950      -0.85342640       0.00215309
H        1.99473018      -0.50605055       0.89354482      -0.15054196       0.13880312       0.21258270       0.00320508       0.00300841       0.00517082
F        0.89788639       2.64149152      -0.00442372       1.46713514       0.84064223       0.93872247      -0.23271315      -0.10403772      -0.00076135
Cl      -0.69504884      -1.53494042       0.00509220      -0.74706089       1.66070668       0.04881647       0.38207948      -0.16174994      -0.00050876
H       -0.22306082       0.64592326      -0.87549887      -0.12314736      -0.10330371      -0.09121529      -0.00302890      -0.00293595      -0.00472561
H       -0.22431889       0.65275656       0.87018381       0.16413986      -0.31045306      -0.03437673      -0.00396382      -0.00350204       0.00469305
H        1.88822962       1.08069343      -0.00059746      -0.10882398       0.22746961       0.10952482       0.00778691       0.00253743      -0.00033365
H        1.99700981      -0.51031959      -0.88698835       0.09734489      -0.15231665       0.05694172       0.00216950       0.00222225      -0.00486279
9
Properties=species:S:1:pos:R:3:momenta:R:3:forces:R:3 R1=H R2=H R3=CH3 R4=CH3 leaving_group=Cl nucleophile=Cl rxn=sn2 config=rcc label=H_H_CH3_CH3_Cl_Cl_sn2_rcc conformation=0 reactant_id=H_H_CH3_CH3_Cl_none_-_r product_id=H_H_CH3_CH3_none_Cl_sn2_pc mp2_author_energy=-29302.391748605172 mp2_my_energy=0 hash=59123 address=T id=71 energy=-17370.32126272193 pbc="F F F"
C        0.28808693       1.24633566       0.12300403      -0.15098146       0.61034108      -0.42623816       0.01767066      -2.41641763       0.28642015
C        1.52282254       0.60263776      -0.49747429       0.51549991       0.66564731      -0.02016560      -0.97248464       1.21876370       0.05831000
H        1.78352122      -0.25504332       0.09894268      -0.10806570       0.04014273       0.03582842       0.40970468      -0.41740847       0.02814096
F        1.79903067       3.20209785       0.98369983       0.22459384      -0.36930553       0.35263849       0.58172960       0.43616534       0.01675567
Cl      -1.06294007      -0.01504928      -0.01400999      -0.83795675       2.45154921       0.44241170      -0.02823810       0.19839532      -0.11428573
H        0.00793214       2.12488586      -0.37719101       0.05559684       0.20202527       0.13127951      -0.53324230       1.05239587      -0.61145029
H        0.46972660       1.47302598       1.16483396       0.28505203      -0.23879760      -0.03994667      -0.09777155       0.03014550      -0.09220214
H        2.18025367       1.46002905      -0.36636245       0.00258832      -0.00170294       0.05446892       0.59634747      -0.09178086       0.01329921
H        1.38060191       0.34836161      -1.55919820       0.22214802       0.21428778      -0.02747058       0.02628419      -0.01025878       0.41501217
9
Properties=species:S:1:pos:R:3:momenta:R:3:forces:R:3 R1=H R2=H R3=CH3 R4=CH3 leaving_group=Cl nucleophile=Cl rxn=sn2 config=rcc label=H_H_CH3_CH3_Cl_Cl_sn2_rcc conformation=0 reactant_id=H_H_CH3_CH3_Cl_none_-_r product_id=H_H_CH3_CH3_none_Cl_sn2_pc mp2_author_energy=-29302.391748605172 mp2_my_energy=0 hash=59123 address=T id=71 energy=-17370.219523608048 pbc="F F F"
C        0.36793105       2.47459333       0.52466668       0.40123759       1.38951485       0.68335795      -0.40646294      -0.01877017       0.13738162
C        1.28977346       1.96385859      -0.48068210      -0.35322666       0.90648301       0.13432020       0.74668123      -0.96577848      -1.36688098
H        1.19986750       0.87048984      -0.51834546      -0.10656272       0.07705111       0.04610632      -0.08108630       0.12538704      -0.41822624
F        2.71024139       3.14187350       1.60621268       0.57710160      -0.09447074       0.28673354      -1.18180577      -0.20946489      -0.41550073
Cl      -1.31858007       1.81408283      -0.11668378      -0.43557812       2.91339393      -0.52226996       0.30068300       0.60432761       0.25559028
H        0.30801623       3.54467771       0.53300149       0.03657098       0.14903295       0.35500235      -0.14663250       0.33132096       0.41409641
H        0.43947675       2.00486995       1.46698495      -0.01053658      -0.31161159       0.10039766       0.33870052       0.05697532       1.00290156
H        2.29583970       2.18164018      -0.11329138       0.03208786      -0.12384511      -0.13038247       0.01642091       0.54772974       0.03993757
H        1.04946657       2.43150090      -1.45758448       0.14161836      -0.05860527      -0.27141208       0.41350184      -0.47172713       0.35070051
9
Properties=species:S:1:pos:R:3:momenta:R:3:forces:R:3 R1=H R2=H R3=CH3 R4=CH3 leaving_group=Cl nucleophile=Cl rxn=sn2 config=rcc label=H_H_CH3_CH3_Cl_Cl_sn2_rcc conformation=0 reactant_id=H_H_CH3_CH3_Cl_none_-_r product_id=H_H_CH3_CH3_none_Cl_sn2_pc mp2_author_energy=-29302.391748605172 mp2_my_energy=0 hash=59123 address=T id=71 energy=-17370.30997811625 pbc="F F F"
C        0.49332221       3.32845887       0.59588433       0.08860096       0.60251622      -0.12684317       0.73382019       0.65074121      -1.39491246
C        1.40576324       3.23484555      -0.66997067       0.13868658       0.55844235      -0.12442812      -0.05931265      -0.13616711       1.20879826
H        1.10089654       2.43010418      -1.36001730      -0.16203518       0.05305285       0.11757851       0.01255048       0.33903985       0.28218075
F        2.60099660       2.90644385       1.94289222       0.27384459      -0.11423865       0.40162483       0.73016698      -0.18380121       0.21952890
Cl      -1.21512286       3.79484872       0.13387638       0.30808297       2.03061795       0.06517356      -0.21761454      -0.15556627      -0.47828179
H        0.85622115       4.07486625       1.29020424       0.00520486      -0.06628061       0.31094747       0.10675051      -0.21379000      -0.11540887
H        0.51822320       2.36815070       1.06533555      -0.35358225      -0.06448260      -0.09140432      -0.29949590      -0.32833971       0.42007900
H        2.37881423       3.01387409      -0.18761821       0.00170517      -0.08266307      -0.17619957      -0.51152890      -0.25186205      -0.01376446
H        1.55692422       4.16794040      -1.20400340      -0.12634971       0.06887637       0.04359000      -0.49533617       0.27974528      -0.12821932
9
Properties=species:S:1:pos:R:3:momenta:R:3:forces:R:3 R1=H R2=H R3=CH3 R4=CH3 leaving_group=Cl nucleophile=Cl rxn=sn2 config=rcc label=H_H_CH3_CH3_Cl_Cl_sn2_rcc conformation=0 reactant_id=H_H_CH3_CH3_Cl_none_-_r product_id=H_H_CH3_CH3_none_Cl_sn2_pc mp2_author_energy=-29302.391748605172 mp2_my_energy=0 hash=59123 address=T id=71 energy=-17370.35465554313 pbc="F F F"
C        0.47647692       4.07360767       0.81724965       0.34544314       0.64107320      -0.16079701       0.02277868      -0.37389138       0.47010905
C        1.51554361       4.18431784      -0.27381044       0.09977064       0.73700425      -0.24760341      -1.24543935       0.70780784      -0.76705268
H        1.07628678       3.87161467      -1.22672840      -0.10879956       0.09252676       0.06592218      -0.01844696      -0.18932644      -0.05148782
F        2.33681904       2.73406190       1.73734729      -1.72309485       0.40661487      -0.39712572      -0.00594339      -0.24800133       0.34299757
Cl      -0.98072177       5.11987877       0.26335221       1.04063183       1.11832959       0.94629885      -0.00899666       0.00370657      -0.14863584
H        0.77213173       4.51555934       1.77225599      -0.05873860      -0.07085558       0.23110043       0.07354838      -0.45394542      -0.41464499
H        0.07032734       3.06109758       0.93487816       0.35327174      -0.04161484      -0.00094803       0.38009431       0.51906687       0.09442651
H        2.32053983       3.52606857       0.03037706       0.02305310       0.03603863       0.20314414       0.30073402       0.14068358       0.32257763
H        1.74913551       5.24393135      -0.41983556       0.19479631      -0.06741821      -0.23882297       0.50167096      -0.10610030       0.15171056
9
Properties=species:S:1:pos:R:3:momenta:R:3:forces:R:3 R1=H R2=H R3=CH3 R4=CH3 leaving_group=Cl nucleophile=Cl rxn=sn2 config=rcc label=H_H_CH3_CH3_Cl_Cl_sn2_rcc conformation=0 reactant_id=H_H_CH3_CH3_Cl_none_-_r product_id=H_H_CH3_CH3_none_Cl_sn2_pc mp2_author_energy=-29302.391748605172 mp2_my_energy=0 hash=59123 address=T id=71 energy=-17370.312148541136 pbc="F F F"
C        0.58667445       4.98046763       0.91409013      -0.05115528       0.74769527       0.20813245      -1.91664409      -0.14907486      -0.56522922
C        1.73202958       5.22436991      -0.03749836      -0.42089987       0.18275017       0.42531836      -0.31204463       0.30998847       1.29818421
H        1.38151671       5.34098116      -1.05474556       0.01024431      -0.07864280       0.05363337       0.02641320      -0.02087036      -0.24768605
F        1.49350149       2.84052124       1.40165797       0.45942191      -0.51232635      -0.37568814       0.34646872      -0.39948514       0.09637334
Cl      -0.52570995       6.56456040       0.62780592       0.81077372       2.03589825       0.00885248       0.44808231      -0.48281328       0.33453219
H        0.80890956       4.92725279       1.99009034      -0.12590486      -0.01888910       0.08224229       0.03683101       0.19316938      -0.79481053
H       -0.08816355       4.14352770       0.62043732      -0.21949772       0.34780781      -0.20058171       0.85242572       0.84096665       0.38449999
H        2.38144923       4.38306854       0.11738160      -0.24549976       0.02234029       0.02845352       0.20684250      -0.54321486      -0.13964127
H        2.21288912       6.13447863       0.31363223      -0.06040459      -0.03362194       0.14848223       0.31162525       0.25133399      -0.36622266
9
Properties=species:S:1:pos:R:3:momenta:R:3:forces:R:3 R1=H R2=H R3=CH3 R4=CH3 leaving_group=Cl nucleophile=Cl rxn=sn2 config=rcc label=H_H_CH3_CH3_Cl_Cl_sn2_rcc conformation=0 reactant_id=H_H_CH3_CH3_Cl_none_-_r product_id=H_H_CH3_CH3_none_Cl_sn2_pc mp2_author_energy=-29302.391748605172 mp2_my_energy=0 hash=59123 address=T id=71 energy=-17370.115320107674 pbc="F F F"
C        0.55480227       5.87009660       0.80023367      -0.43958177       0.91408174      -0.21126952       0.44510806      -1.52515643       0.92858619
C        2.06227660       5.86936481       0.37400824       0.14564787       0.89754242       0.22856052      -1.91972111       0.18148721      -0.33269636
H        2.03531343       6.45675441      -0.53448219       0.02610603       0.07030303       0.07689016       0.56164218       0.28431174      -0.41019336
F        0.55732041       3.56223494       0.94990997      -1.14614336       0.72137550      -0.25871137       0.20430594       0.16015593      -0.18534778
Cl      -0.02390264       7.63087425       1.04712621       1.13538840       0.94318213       0.76121902       0.35998985       0.79045147      -0.50113584
H        0.35350169       5.47741916       1.79941192      -0.05157136      -0.06894739      -0.10277156       0.30629680      -0.34077387      -0.85283255
H       -0.07967706       5.41808895       0.01771792       0.24004526      -0.09809867      -0.02905651       0.44958785       0.33371967       0.68368133
H        2.32594969       4.84088964       0.12280340      -0.04197365       0.07938487       0.17835667      -0.22140119       0.08511664       0.35369148
H        2.75985997       6.32681688       1.06871889       0.32823213      -0.09595001      -0.17013837      -0.18580838       0.03068764       0.31624690
9
Properties=species:S:1:pos:R:3:momenta:R:3:forces:R:3 R1=H R2=H R3=CH3 R4=CH3 leaving_group=Cl nucleophile=Cl rxn=sn2 config=rcc label=H_H_CH3_CH3_Cl_Cl_sn2_rcc conformation=0 reactant_id=H_H_CH3_CH3_Cl_none_-_r product_id=H_H_CH3_CH3_none_Cl_sn2_pc mp2_author_energy=-29302.391748605172 mp2_my_energy=0 hash=59123 address=T id=71 energy=-17370.028667823415 pbc="F F F"
C        0.30647911       6.96453739       0.96522125       0.48992741       0.78500356      -0.17348043       0.61820297       0.64007282      -0.37672311
C        1.70004775       6.35866998       0.99792776      -0.48480869      -0.28076423       0.55402065       0.37138107       0.36511353       0.32601921
H        2.32153520       6.75748134       0.20056400      -0.10469136       0.01372281      -0.01422523      -0.26516799       0.01716119      -0.38331845
F       -0.15973162       4.96553397       0.21836073      -0.60046632       1.83874891      -0.36095427      -0.89412554      -1.90986872      -0.76663165
Cl       0.76302027       8.76947545       1.46960493       0.44382433       0.78040145       0.42010783      -0.49841021       0.36304808       0.46318533
H       -0.47103497       6.48352707       1.61213544       0.21751103       0.20851400       0.07268178       1.01870768       1.04760824      -0.53136125
H       -0.00445433       7.13336217      -0.06568022       0.25488916       0.00787387       0.14457898      -0.40583295      -0.24289877       0.52436912
H        1.64320431       5.28986343       0.91445276       0.06806284      -0.05764096      -0.16084629      -0.23111582      -0.23533332      -0.09951773
H        2.22170969       6.66345306       1.88661036      -0.08072992       0.19335041       0.00896860       0.28636079      -0.04490305       0.84397854
9
Properties=species:S:1:pos:R:3:momenta:R:3:forces:R:3 R1=H R2=H R3=CH3 R4=CH3 leaving_group=Cl nucleophile=Cl rxn=sn2 config=rcc label=H_H_CH3_CH3_Cl_Cl_sn2_rcc conformation=0 reactant_id=H_H_CH3_CH3_Cl_none_-_r product_id=H_H_CH3_CH3_none_Cl_sn2_pc mp2_author_energy=-29302.391748605172 mp2_my_energy=0 hash=59123 address=T id=71 energy=-17370.054844064947 pbc="F F F"
C        0.38067100       8.03654220       0.88224958      -0.62481020       1.64775001      -0.85070968      -0.69241972      -0.22687643      -0.11372452
C        1.18829935       6.84844487       1.39852798      -0.22506892      -0.13697259       0.05428387       0.34746702       1.26890010      -0.23670378
H        2.24599032       7.10092830       1.21756663       0.05442272       0.26007106       0.17398216      -0.24668266      -0.57370297       0.45435417
F       -0.66527621       6.49854055      -0.14815591      -0.48319867       0.95130122      -0.46140425      -0.65055014      -0.25163752      -0.55124817
Cl       1.35926650       9.46156649       1.82938417       1.72009097       1.12040011       1.25674686      -0.24666705       0.41096087       0.27881087
H       -0.68005388       8.08646857       1.21325153       0.09579855       0.05941672       0.09745730       1.25793776       0.18211812      -0.18276308
H        0.53464631       8.41256928      -0.12389081      -0.10937724      -0.12691325       0.03780151      -0.11504832      -0.54211647       0.17024193
H        0.88821983       5.92393861       0.94236433      -0.00948979      -0.07649761       0.21552375      -0.15650483      -0.04391756      -0.48786908
H        0.91917881       6.80942643       2.43922357      -0.19581429       0.11699251       0.01307844       0.50246795      -0.22372814       0.66890166
9
Properties=species:S:1:pos:R:3:momenta:R:3:forces:R:3 R1=H R2=H R3=CH3 R4=CH3 leaving_group=Cl nucleophile=Cl rxn=sn2 config=rcc label=H_H_CH3_CH3_Cl_Cl_sn2_rcc conformation=0 reactant_id=H_H_CH3_CH3_Cl_none_-_r product_id=H_H_CH3_CH3_none_Cl_sn2_pc mp2_author_energy=-29302.391748605172 mp2_my_energy=0 hash=59123 address=T id=71 energy=-17370.051775102485 pbc="F F F"
C        0.53144377       9.13743016       0.98110587       0.02593408       1.39501229      -0.16151504      -1.39645629      -0.53761655      -0.21944695
C        0.29365175       7.80161988       1.71671663      -0.55030259       1.52891047      -0.40528797       0.89636685       0.13425944       0.58554560
H        1.18315220       7.19978613       2.01461719       0.16045536       0.04004612       0.29070244      -0.21443528       1.14952812      -0.21063014
F       -0.92290098       8.56236625      -0.38513397      -0.79260878       1.22521163      -0.34119730       0.58655708       0.23337700       0.46334008
Cl       1.96825786      10.01651604       2.13440933       0.82815777      -0.21080922       0.87778673      -0.43660712      -0.29769535      -0.03009452
H       -0.30660688       9.82387202       1.05024418       0.11310089      -0.11870402      -0.04991711       0.57131156      -0.04430277       0.34489914
H        1.03108163       9.24678646       0.04393635       0.23530269       0.11278162       0.25916117       0.19309580      -0.68903063       0.00916094
H       -0.27502882       7.14192683       1.09492271       0.01670418      -0.06405428      -0.02807846      -0.53767752       0.13024047      -0.59764786
H       -0.29090390       8.01104533       2.63143040       0.20588553       0.25134520       0.14352535       0.33784491      -0.07875972      -0.34512629
9
Properties=species:S:1:pos:R:3:momenta:R:3:forces:R:3 R1=H R2=H R3=CH3 R4=CH3 leaving_group=Cl nucleophile=Cl rxn=sn2 config=rcc label=H_H_CH3_CH3_Cl_Cl_sn2_rcc conformation=0 reactant_id=H_H_CH3_CH3_Cl_none_-_r product_id=H_H_CH3_CH3_none_Cl_sn2_pc mp2_author_energy=-29302.391748605172 mp2_my_energy=0 hash=59123 address=T id=71 energy=-17369.989759476583 pbc="F F F"
C        0.58589664      10.46365300       1.13474263      -0.32799114       1.11755696      -0.74114869       0.09073321      -0.21769200      -0.09752259
C       -0.41256672       9.65695616       1.98530934       0.43760760       0.99393617       0.28090739       1.24956965       0.32522504       1.63391421
H        0.10327520       8.69187306       2.24553565      -0.04563213       0.11082384      -0.02673701      -0.91736223       0.60814381      -0.37269773
F       -0.67989481      10.83759019      -0.29492033      -0.11234907       1.60531695      -0.16716189      -1.24932849       0.26590918      -0.75199080
Cl       2.26878030      10.25052705       2.29868388       0.00192616      -0.05352433       0.56505652       0.16181602      -0.17595773       0.15001688
H        0.64233207      11.54124027       1.12539277       0.11511136      -0.03652617       0.37215551      -0.36949176      -0.39608800       0.33110871
H        0.87569092       9.99006431       0.20125033       0.04072199      -0.25872331       0.19161731       0.56717105      -0.01886068       0.74699551
H       -1.35892025       9.54656509       1.48209360      -0.06950078       0.10238061       0.03714484       0.02814025      -0.12182145      -0.48056515
H       -0.61597735      10.14045108       2.98946451       0.16989963       0.01555252      -0.00584784       0.43875231      -0.26885817      -1.15925905
9
Properties=species:S:1:pos:R:3:momenta:R:3:forces:R:3 R1=H R2=H R3=CH3 R4=CH3 leaving_group=Cl nucleophile=Cl rxn=sn2 config=rcc label=H_H_CH3_CH3_Cl_Cl_sn2_rcc conformation=0 reactant_id=H_H_CH3_CH3_Cl_none_-_r product_id=H_H_CH3_CH3_none_Cl_sn2_pc mp2_author_energy=-29302.391748605172 mp2_my_energy=0 hash=59123 address=T id=71 energy=-17370.05099614128 pbc="F F F"
C        0.71650895      11.61210693       1.22232362      -0.23005450      -0.21105857       0.10353805      -1.53083378      -0.93554881       1.93053888
C       -0.44361416      11.52118835       2.30387465      -0.02594844       0.86488775       0.19361771       2.65082357      -0.40222859      -0.46453539
H       -0.57614101      10.46416357       2.53303133      -0.01749066       0.24669160       0.05560048      -0.07352680       0.02106591       0.27026314
F       -0.28805622      12.71277322      -0.01323035       0.56774467       1.60557818       0.25938249      -0.78702158       0.40279316      -0.40860741
Cl       2.15809995      10.41989978       2.31582823      -0.53843140       0.85296028      -0.21717025      -0.10240860       0.27068935      -0.02240675
H        1.24394395      12.52925630       1.21039383      -0.07680043      -0.02680580       0.11083359       0.90392352       0.05847857      -0.13213574
H        0.69942640      10.88821514       0.42821225       0.13540598      -0.04699468      -0.00427728       0.21039385       0.27811231      -0.07402163
H       -1.33116987      11.90463698       1.87009142       0.17927944       0.16267014       0.05124173      -0.74075767       0.71301950      -0.41517533
H       -0.10340696      12.05505446       3.22601855       0.19380686      -0.23314964      -0.10052098      -0.53059252      -0.40638140      -0.68391977
9
Properties=species:S:1:pos:R:3:momenta:R:3:forces:R:3 R1=H R2=H R3=CH3 R4=CH3 leaving_group=Cl nucleophile=Cl rxn=sn2 config=rcc label=H_H_CH3_CH3_Cl_Cl_sn2_rcc conformation=0 reactant_id=H_H_CH3_CH3_Cl_none_-_r product_id=H_H_CH3_CH3_none_Cl_sn2_pc mp2_author_energy=-29302.391748605172 mp2_my_energy=0 hash=59123 address=T id=71 energy=-17370.072051817533 pbc="F F F"
C        0.82257080      12.61879114       1.37471028      -0.45261871       1.01127346       0.46594303      -0.09816239      -1.37118586       0.09552959
C        0.03709534      12.98552344       2.62813286       0.57761474       0.07208652       0.10779927       3.14241992      -1.19219719       0.23923382
H       -0.57860002      12.20363999       3.00808914      -0.12201677       0.20471201      -0.14777374      -0.87218371      -0.60489514      -0.23459054
F        0.36830844      14.24914358       0.46552718       1.01242321       0.14438855       0.86263014      -0.49796764       0.85665932      -0.43101665
Cl       1.68032452      10.81618134       2.17446901      -1.06139013       1.48044843      -0.57317219       0.09636049      -0.52872104       0.17848637
H        1.81699379      12.94400064       1.15431764      -0.02167372       0.06979826      -0.16910048      -0.12405684       0.26738589       0.38625459
H        0.34770427      12.05668743       0.58784356       0.02649156      -0.00072052       0.04642718      -0.09360226       0.30480382       0.05654141
H       -0.42577260      13.88943192       2.43811417       0.18879234       0.02470116      -0.03537933      -1.23425445       1.78263898      -0.26855651
H        0.80089680      13.07805533       3.41458466       0.03358938       0.10008821      -0.12032187      -0.31855311       0.48551122      -0.02188208
9
Properties=species:S:1:pos:R:3:momenta:R:3:forces:R:3 R1=H R2=H R3=CH3 R4=CH3 leaving_group=Cl nucleophile=Cl rxn=sn2 config=rcc label=H_H_CH3_CH3_Cl_Cl_sn2_rcc conformation=0 reactant_id=H_H_CH3_CH3_Cl_none_-_r product_id=H_H_CH3_CH3_none_Cl_sn2_pc mp2_author_energy=-29302.391748605172 mp2_my_energy=0 hash=59123 address=T id=71 energy=-17370.119935263294 pbc="F F F"
C        1.02584378      13.68560278       1.57985707       0.48719650      -0.46904923       1.01659350       1.27977625      -0.23761547      -0.57279808
C        0.81268864      14.07991865       2.98343531       0.05838739       0.30355128       0.61237059      -1.05745836       0.15967431       1.16738618
H       -0.15715053      13.73573677       3.28966179       0.07737241       0.30653468      -0.16690355      -0.52845560      -0.50628916       0.41539959
F        1.20288681      15.55203475       1.05527254       0.57529723       1.87082613      -0.03719849      -0.04601338       0.16011340      -0.22101426
Cl       0.96954476      11.57898081       1.95307287      -1.42275331       1.41999953      -0.95429275      -0.10822954      -0.43403141      -0.02230833
H        2.06880835      13.60603660       1.27091709       0.05412771       0.09278394       0.12013246      -0.69744078       0.10737482      -0.51790605
H        0.19050563      13.63107515       0.88518863       0.00080765      -0.10173698       0.07659919       0.54709523       0.12513221       0.17926698
H        0.75954995      15.13459909       3.09332661       0.16998876       0.22261319      -0.02978333       0.24510957       1.09997200      -0.34104838
H        1.53203987      13.72019964       3.70343511       0.21838501       0.10584064      -0.10978703       0.36561660      -0.47433070      -0.08697764
9
Properties=species:S:1:pos:R:3:momenta:R:3:forces:R:3 R1=H R2=H R3=CH3 R4=CH3 leaving_group=Cl nucleophile=Cl rxn=sn2 config=rcc label=H_H_CH3_CH3_Cl_Cl_sn2_rcc conformation=0 reactant_id=H_H_CH3_CH3_Cl_none_-_r product_id=H_H_CH3_CH3_none_Cl_sn2_pc mp2_author_energy=-29302.391748605172 mp2_my_energy=0 hash=59123 address=T id=71 energy=-17370.096681921023 pbc="F F F"
C        1.29535869      14.67689289       1.82079968      -0.10576480       0.99164845       0.10909095      -1.82409462       0.01565866      -1.62735743
C        1.50164579      14.71717673       3.29048724       0.36289657      -0.00158079       0.08675896       0.17087814       0.74747218       0.90686278
H        0.58062872      14.64379029       3.89691830       0.22003919      -0.04765390       0.23473574       0.24951431      -0.27452957      -0.60304036
F        2.01094169      16.45007111       1.60845335       0.72298236       0.66244779       0.19127035       0.35874142       0.27456434      -0.25165514
Cl       0.26515191      12.66096605       1.74736994      -1.28870935       1.70316676      -0.41709359       0.04672858       0.10526432       0.28707284
H        1.94653624      14.17372997       1.10802726       0.12703395       0.36020175       0.03931854       0.15526481       0.69523579       0.74000840
H        0.38334931      15.11017776       1.37264634       0.11049588       0.09385831      -0.09749960       0.84021302      -0.44067663       0.54268784
H        1.98887091      15.67401086       3.56858397       0.17311165       0.15217873      -0.00416495      -0.24830705      -0.43934594      -0.38992393
H        2.17052349      13.92487391       3.55912298      -0.10034954      -0.11272980       0.39237254       0.25106139      -0.68364315       0.39534500
9
Properties=species:S:1:pos:R:3:momenta:R:3:forces:R:3 R1=H R2=H R3=CH3 R4=CH3 leaving_group=Cl nucleophile=Cl rxn=sn2 config=rcc label=H_H_CH3_CH3_Cl_Cl_sn2_rcc conformation=0 reactant_id=H_H_CH3_CH3_Cl_none_-_r product_id=H_H_CH3_CH3_none_Cl_sn2_pc mp2_author_energy=-29302.391748605172 mp2_my_energy=0 hash=59123 address=T id=71 energy=-17369.894651533974 pbc="F F F"
C        1.51614569      15.97197740       2.15077196      -0.61718627       0.50823745      -0.21979967      -1.24724768       0.08124625      -1.29323043
C        2.07065640      14.97104765       3.17730691      -0.52492200       0.04389989      -0.58483668      -1.39694380       1.58406422      -0.66368597
H        1.32370819      15.07952516       3.98046461      -0.15077271       0.04104419      -0.00678184       0.78572253      -0.19255871       0.26419390
F        2.99180654      17.17650000       2.40337347       1.06717092       0.60154168       0.83897162      -0.16374672       0.08689891      -0.03269647
Cl      -0.39257641      14.77595034       1.68447957       0.48487231       3.31387712       0.67173680       0.04689792      -0.18886872       0.05741635
H        1.67520164      15.91275626       1.07236049      -0.04390361      -0.03104312       0.13530049       0.58783612      -0.28437263       0.95226023
H        0.65566045      16.62871698       2.33437978       0.23006235      -0.01127616       0.19355788       1.37770527      -0.34165831       0.62830786
H        3.08005777      15.34991736       3.41129510       0.04444547       0.14202172      -0.18193143      -0.44824586      -0.58155655       0.20452699
H        1.98054389      13.95269870       2.81712153      -0.21689692       0.06989174      -0.18810270       0.45802223      -0.16319445      -0.11709246
9
Properties=species:S:1:pos:R:3:momenta:R:3:forces:R:3 R1=H R2=H R3=CH3 R4=CH3 leaving_group=Cl nucleophile=Cl rxn=sn2 config=rcc label=H_H_CH3_CH3_Cl_Cl_sn2_rcc conformation=0 reactant_id=H_H_CH3_CH3_Cl_none_-_r product_id=H_H_CH3_CH3_none_Cl_sn2_pc mp2_author_energy=-29302.391748605172 mp2_my_energy=0 hash=59123 address=T id=71 energy=-17369.956766307132 pbc="F F F"
C        1.65482496      17.06505904       2.46548250       0.64372461       1.31455449       0.40968470      -1.88224830      -0.12574610      -0.34931062
C        1.81616442      15.59968588       2.42051931      -0.91978090       0.21486073      -0.57402331      -0.48512380      -3.19274255      -0.71590506
H        1.22251005      15.01760047       3.17848706       0.00558228      -0.05373238       0.02522184       0.39309480       0.82718594      -0.57958003
F        3.41575730      17.34453067       3.11147005      -0.05393437       0.05295290       0.44484001       2.51358296       0.29033887       0.73403517
Cl      -0.41693860      16.90562577       1.90788193       0.36593813       2.85529538       0.57406025      -0.57464692       0.50157218      -0.15302376
H        1.96173634      17.56849072       1.55610575       0.22746933      -0.18729174       0.21120932      -0.31127587       0.51219644       0.43815886
H        1.44139017      17.55237471       3.40970298       0.07073519      -0.12023011      -0.26099239      -0.17677574       0.20690373      -0.61079324