9
Properties=species:S:1:pos:R:3:momenta:R:3:forces:R:3 R1=H R2=H R3=CH3 R4=CH3 leaving_group=Cl nucleophile=Cl rxn=sn2 config=rcc label=H_H_CH3_CH3_Cl_Cl_sn2_rcc conformation=0 reactant_id=H_H_CH3_CH3_Cl_none_-_r product_id=H_H_CH3_CH3_none_Cl_sn2_pc mp2_author_energy=-29302.391748605172 mp2_my_energy=0 hash=59123 address=T id=71 energy=-17370.412368016237 pbc="F F F"
C        0.12542541       0.11270554      -0.00029240       0.73869101       0.98796173       0.17623234      -0.09214561       1.11788396      -0.00082481
C        1.62503867       0.00847468       0.00156754      -0.63012984      -0.21449118       1.41375037      -0.06338950      -0.85342640       0.00215309
H        1.99473018      -0.50605055       0.89354482      -0.09876563       0.25312975      -0.02380739       0.00320508       0.00300841       0.00517082
F        0.89788639       2.64149152      -0.00442372       0.11726600       0.32496861       1.24755712      -0.23271315      -0.10403772      -0.00076135
Cl      -0.69504884      -1.53494042       0.00509220      -0.12238119       0.09912914       0.07726490       0.38207948      -0.16174994      -0.00050876
H       -0.22306082       0.64592326      -0.87549887      -0.21800076      -0.34773121      -0.00382181      -0.00302890      -0.00293595      -0.00472561
H       -0.22431889       0.65275656       0.87018381       0.07550784       0.13962134       0.09057036      -0.00396382      -0.00350204       0.00469305
H        1.88822962       1.08069343      -0.00059746      -0.22493012       0.05937291       0.08642012       0.00778691       0.00253743      -0.00033365
H        1.99700981      -0.51031959      -0.88698835       0.13943514       0.06200133       0.24902731       0.00216950       0.00222225      -0.00486279
9
Properties=species:S:1:pos:R:3:momenta:R:3:forces:R:3 R1=H R2=H R3=CH3 R4=CH3 leaving_group=Cl nucleophile=Cl rxn=sn2 config=rcc label=H_H_CH3_CH3_Cl_Cl_sn2_rcc conformation=0 reactant_id=H_H_CH3_CH3_Cl_none_-_r product_id=H_H_CH3_CH3_none_Cl_sn2_pc mp2_author_energy=-29302.391748605172 mp2_my_energy=0 hash=59123 address=T id=71 energy=-17370.286675041407 pbc="F F F"
C        0.19863535       0.51104784       0.85497339       0.09867504      -0.35021350       0.13441374       0.67347818      -0.43832559       0.01405159
C        0.68236322       0.19256688       2.23511215      -0.21503511       0.34887088       0.93124706      -0.39042743       0.69148485       0.39470893
H       -0.12976402      -0.05650033       2.94171807      -0.32638332       0.19053548       0.10024147       0.33074871       0.08457557      -0.29173045
F        0.85414840       3.01616781       1.36952427      -0.03584083       0.08861079       1.30610955       0.04848349      -0.35522363       0.08347076
Cl      -0.45236492      -1.06380424       0.17523842       0.13693883       0.64007771       0.03208509       0.21949395      -0.24690774      -0.39899930
H        1.07030932       0.95623463       0.35296956       0.13388217      -0.00953321       0.34466061      -0.71233604      -0.40540400      -0.47137068
H       -0.62237207       1.18171366       0.83648675       0.00617555       0.14673657       0.09119995      -0.33805334       0.74600822       0.07892832
H        1.10029951       1.18991724       2.41388531      -0.17421431       0.14875582       0.06896783       0.10701257       0.00096757       0.63509788
H        1.44231266      -0.58613447       2.24271199       0.16041553       0.11173976       0.18674329       0.06159990      -0.07717525      -0.04415705
9
Properties=species:S:1:pos:R:3:momenta:R:3:forces:R:3 R1=H R2=H R3=CH3 R4=CH3 leaving_group=Cl nucleophile=Cl rxn=sn2 config=rcc label=H_H_CH3_CH3_Cl_Cl_sn2_rcc conformation=0 reactant_id=H_H_CH3_CH3_Cl_none_-_r product_id=H_H_CH3_CH3_none_Cl_sn2_pc mp2_author_energy=-29302.391748605172 mp2_my_energy=0 hash=59123 address=T id=71 energy=-17370.272980545175 pbc="F F F"
C        0.31721447       0.85085157       1.93253840      -0.14853982       0.16021359       0.79334324       1.24342830       0.64494940      -1.11254810
C       -0.87040774       0.84659472       2.78285104      -0.58975979       0.62379325      -0.10440681       0.18264027       0.13329720       1.63421204
H       -1.78758587       0.86034767       2.19548518       0.12409556      -0.10091858       0.01300138      -0.06698426       0.04103096       0.11546284
F        0.91304494       3.06485165       3.26985034      -0.01910092      -0.54880613       1.04307111      -0.22398512      -0.78384902      -0.39349016
Cl      -0.02542936      -0.54888169       0.78756298       0.67135476       1.15555912       1.28803602       0.38855608      -0.55904366      -0.39249960
H        1.30202312       0.67257431       2.41138208       0.02654141       0.18662750       0.17056245      -0.98012250       0.30229922      -0.22392235
H        0.34467809       1.73605778       1.30942297       0.02864927      -0.09033538      -0.11239302       0.38611389       0.06495339       0.20068475
H       -0.66640448       1.78432207       3.33831997      -0.10452082      -0.17235490       0.10817605      -0.40691599      -0.27093654       0.18541825
H       -0.80009709      -0.05385435       3.42018318      -0.19224903       0.02937892      -0.17964391      -0.52273068       0.42729903      -0.01331767
9
Properties=species:S:1:pos:R:3:momenta:R:3:forces:R:3 R1=H R2=H R3=CH3 R4=CH3 leaving_group=Cl nucleophile=Cl rxn=sn2 config=rcc label=H_H_CH3_CH3_Cl_Cl_sn2_rcc conformation=0 reactant_id=H_H_CH3_CH3_Cl_none_-_r product_id=H_H_CH3_CH3_none_Cl_sn2_pc mp2_author_energy=-29302.391748605172 mp2_my_energy=0 hash=59123 address=T id=71 energy=-17370.31288250964 pbc="F F F"
C        0.15436268       1.17643924       3.03754149       0.24659322       0.12823089       0.86459142       0.13355538       0.32846235       1.12608281
C       -1.11486230       2.01230634       2.77186103       0.68927879       0.71452036      -0.18792787       1.90357927      -1.07992500      -0.32471720
H       -0.85085584       2.59952982       1.89678358       0.09404724       0.03616370      -0.05148825      -0.30138057       0.52357707       0.00567959
F        0.32355059       2.61183522       5.07898079      -1.02740154      -0.49528467       1.51479407      -0.04692925      -0.49601879      -0.71780319
Cl       0.31232000      -0.01210308       1.58717666      -0.19801414       1.54404577       1.65586411       0.09244634       0.41934941       0.13193892
H        0.14684526       0.51623216       3.91596997       0.13932154      -0.11108045      -0.00151530      -0.35590949       0.59067762      -0.40984065
H        1.03877565       1.83361223       3.14405932      -0.05253568      -0.26049655      -0.00363917      -0.66280417      -0.58193088      -0.33088713
H       -1.12401775       2.54744033       3.70959256      -0.16919617       0.18176852      -0.08926756      -0.37175573       0.59474590       0.31201957
H       -1.97414998       1.40974828       2.52431717       0.02929188      -0.21932817      -0.01273608      -0.39080177      -0.29893767       0.20752729
9
Properties=species:S:1:pos:R:3:momenta:R:3:forces:R:3 R1=H R2=H R3=CH3 R4=CH3 leaving_group=Cl nucleophile=Cl rxn=sn2 config=rcc label=H_H_CH3_CH3_Cl_Cl_sn2_rcc conformation=0 reactant_id=H_H_CH3_CH3_Cl_none_-_r product_id=H_H_CH3_CH3_none_Cl_sn2_pc mp2_author_energy=-29302.391748605172 mp2_my_energy=0 hash=59123 address=T id=71 energy=-17370.25642281715 pbc="F F F"
C       -0.11673553       1.59165991       4.13317356       0.38412916       0.23881894       0.82972425       0.42586809       0.50329785       1.00726352
C        0.03749035       3.11907371       3.97431896       0.08913041      -0.06311856       1.90626254       1.12063947      -1.34543172      -0.08005323
H        1.09206537       3.28377825       3.74396124       0.01263249      -0.08058709      -0.01156533       0.03761873       0.47317988       0.02522878
F       -1.07052745       2.04124793       6.20571142      -1.39335542       0.19455525       0.72630062      -0.21078330       0.15618211       0.48192008
Cl       0.52229379       0.71229049       2.58143051       0.58161332       1.20513195       1.18983229      -0.13425386       0.66198639       0.41151291
H       -1.13054349       1.32872295       4.30218878       0.02709306       0.09615230      -0.18141840      -0.58641290      -0.42421942      -0.23885517
H        0.43411717       1.23740505       5.02938329      -0.32764901      -0.03406899      -0.11072170      -0.24130000       0.21030125      -1.14108359
H       -0.24861715       3.52839704       4.93744843       0.08968926       0.11141565      -0.05749653       0.02658545      -0.19744318       0.16500154
H       -0.56022323       3.56100356       3.20094939       0.23297003       0.18698517       0.21574351      -0.43796169      -0.03785316      -0.63093483
9
Properties=species:S:1:pos:R:3:momenta:R:3:forces:R:3 R1=H R2=H R3=CH3 R4=CH3 leaving_group=Cl nucleophile=Cl rxn=sn2 config=rcc label=H_H_CH3_CH3_Cl_Cl_sn2_rcc conformation=0 reactant_id=H_H_CH3_CH3_Cl_none_-_r product_id=H_H_CH3_CH3_none_Cl_sn2_pc mp2_author_energy=-29302.391748605172 mp2_my_energy=0 hash=59123 address=T id=71 energy=-17370.1637230762 pbc="F F F"
C       -0.40223595       2.10954104       5.15975740      -0.22076789      -0.49144968       0.38213890       0.74017965      -0.99695059       0.87439526
C        0.51797684       2.40346080       6.35600591      -0.04895096      -0.31307883       1.67356614       0.76435470       0.93909149      -1.53514052
H        1.26891438       1.65940479       6.59688195      -0.10753627      -0.11882590       0.31714049      -0.14775102      -0.62984499      -0.25616681
F       -2.09468485       2.24427740       6.51336737      -0.31886231       0.45212924       0.23072856      -0.34569046       0.17771279       0.28021156
Cl       0.80710998       1.78704853       3.63960947       0.51159771       1.78158499       0.92518109      -0.23890888       0.05120391       0.74753769
H       -0.95943089       2.93905217       4.80388585       0.02281923       0.07881591      -0.08471812      -0.29202806       0.40444213      -0.02573241
H       -0.99880313       1.22836394       5.32884096       0.01462057       0.29652204       0.06153001       0.17240772      -0.11329122      -0.65827037
H       -0.10057123       2.60527952       7.20368190      -0.03582796      -0.06343532       0.02372354      -0.52909117       0.12272241       0.27019920
H        1.11060957       3.28575183       6.07487291      -0.05871585      -0.14642482       0.05565815      -0.12347248       0.04491407       0.30296641
9
Properties=species:S:1:pos:R:3:momenta:R:3:forces:R:3 R1=H R2=H R3=CH3 R4=CH3 leaving_group=Cl nucleophile=Cl rxn=sn2 config=rcc label=H_H_CH3_CH3_Cl_Cl_sn2_rcc conformation=0 reactant_id=H_H_CH3_CH3_Cl_none_-_r product_id=H_H_CH3_CH3_none_Cl_sn2_pc mp2_author_energy=-29302.391748605172 mp2_my_energy=0 hash=59123 address=T id=71 energy=-17370.032219692115 pbc="F F F"
C       -0.56054616       2.49905198       5.98804470      -0.03441339      -0.15788043       0.85774060       1.64355177       0.98669758       2.40254847
C       -0.15755871       1.39336005       6.97481134      -0.46861760      -0.88903325       0.26244755       0.57569406       0.11984854      -0.98742366
H       -0.19857381       0.49909143       6.35674628      -0.09556927       0.08199803      -0.15834478       0.05314761      -0.55483580       0.43791542
F       -2.33511671       2.61703279       6.90522152       0.24210158       0.73500597       0.01853076      -0.24155508       0.00692273      -0.00718642
Cl       1.13979225       2.72365258       4.92657870       0.51366160       1.88171456       2.14647755       0.34381098      -0.39640813      -0.30089550
H       -0.43969568       3.49981173       6.35124442      -0.29930764       0.07076958       0.02778570      -0.63298156       0.07136600      -0.02499256
H       -1.19237062       2.32268216       5.18176068       0.05508970      -0.07503323       0.16930768      -0.85969374      -0.40495741      -0.91187891
H       -0.86832363       1.37794891       7.78772256       0.01310948      -0.10222354       0.16412108      -0.35377792      -0.05139868      -0.07229386
H        0.87076072       1.47740547       7.38437330      -0.16331393      -0.09613691       0.03213060      -0.52819612       0.22276518      -0.53579298
9
Properties=species:S:1:pos:R:3:momenta:R:3:forces:R:3 R1=H R2=H R3=CH3 R4=CH3 leaving_group=Cl nucleophile=Cl rxn=sn2 config=rcc label=H_H_CH3_CH3_Cl_Cl_sn2_rcc conformation=0 reactant_id=H_H_CH3_CH3_Cl_none_-_r product_id=H_H_CH3_CH3_none_Cl_sn2_pc mp2_author_energy=-29302.391748605172 mp2_my_energy=0 hash=59123 address=T id=71 energy=-17370.05475126534 pbc="F F F"
C       -0.75432056       2.82273705       7.12365438       0.65726484      -0.01983952       0.91185895      -1.90154138       0.56290992      -1.99195150
C       -0.81545131       1.51964175       6.35723427       0.61934683       0.20571530      -0.80202204       0.44898522      -0.66355541       1.12202015
H       -0.85436022       1.66133579       5.29956099       0.00918589      -0.09259952       0.08548623      -0.04626204       0.55402760      -0.78636329
F       -2.53487856       2.79689887       7.53517879      -0.63214816       0.55013675       0.64258077       0.72081946      -0.14092988       0.07875464
Cl       1.43989903       3.37356912       6.66743612      -0.75908377       0.72983928       3.17917236      -0.23902693      -0.35015098      -0.10408245
H       -0.40855938       2.98631341       8.09677399       0.07375967      -0.06712509       0.02628142       0.09732119      -0.40659334       0.98541521
H       -0.96358659       3.67769477       6.51575962      -0.00412520       0.23524164       0.19625094       0.16865877       0.48351337       0.27812052
H       -1.68484940       0.89559295       6.62909285      -0.10015192       0.13692131      -0.00800766       0.28707069       0.62785012       0.31347299
H        0.09855523       0.98551948       6.53170903      -0.13389966      -0.03003740      -0.22783966       0.46397502      -0.66707138       0.10461374
9
Properties=species:S:1:pos:R:3:momenta:R:3:forces:R:3 R1=H R2=H R3=CH3 R4=CH3 leaving_group=Cl nucleophile=Cl rxn=sn2 config=rcc label=H_H_CH3_CH3_Cl_Cl_sn2_rcc conformation=0 reactant_id=H_H_CH3_CH3_Cl_none_-_r product_id=H_H_CH3_CH3_none_Cl_sn2_pc mp2_author_energy=-29302.391748605172 mp2_my_energy=0 hash=59123 address=T id=71 energy=-17370.27185988936 pbc="F F F"
C       -0.91707511       2.98519626       8.02613094      -0.12106240      -0.03707836       0.19054380       0.22292630      -0.73977839      -0.54383449
C       -0.82595812       3.52700665       6.58145809      -0.49753555       0.60925548       0.71884579       1.40336512      -1.17703852       1.48846677
H        0.23159206       3.47579064       6.34598856      -0.00459688       0.11620001       0.02073450      -0.05922707       0.21014969      -0.68216072
F       -2.49612358       2.58268658       7.98216179       0.30973397      -0.01117849      -0.07363822      -1.21165338      -0.61192241      -0.21717138
Cl       1.29921602       3.66410720       8.60975170       0.40190571       0.64244130       3.63151259       0.22075135       0.03390587       0.09908050
H       -0.46448030       1.98139825       8.11918849      -0.12845892      -0.11587993      -0.20969161      -0.37812264       0.83746472       0.32963566
H       -1.07958473       3.57029548       8.92182428      -0.01494480       0.05897523      -0.17127007       0.58654975       0.10415466      -0.58815394
H       -1.11189053       4.54993792       6.55714408      -0.10132597       0.07779416       0.09007964      -0.60328318       0.93943545      -0.35770537
H       -1.37052407       2.85299778       5.90567030      -0.13483373       0.43762263       0.12218251      -0.18130626       0.40362894       0.47184298
9
Properties=species:S:1:pos:R:3:momenta:R:3:forces:R:3 R1=H R2=H R3=CH3 R4=CH3 leaving_group=Cl nucleophile=Cl rxn=sn2 config=rcc label=H_H_CH3_CH3_Cl_Cl_sn2_rcc conformation=0 reactant_id=H_H_CH3_CH3_Cl_none_-_r product_id=H_H_CH3_CH3_none_Cl_sn2_pc mp2_author_energy=-29302.391748605172 mp2_my_energy=0 hash=59123 address=T id=71 energy=-17370.8346357931 pbc="F F F"
C       -0.58760865       3.59093474       8.40283961       0.69740846       0.88675372       0.29622424       0.61784869      -0.63807999      -0.95639871
C       -0.99414994       5.00169936       8.09475432       0.63172282       0.45294842       1.13288937      -0.24414575      -0.49323382       1.06137292
H       -0.16144673       5.57048943       7.71324433      -0.15049934      -0.01266708      -0.13506297       0.14570682       0.07077948      -0.51556990
F       -1.72862587       2.66097614       8.17202499       0.48846687      -0.41603229       0.27407152      -0.01898857       0.47668487       0.06119237
Cl       0.67681003       3.65822175       9.93508296      -2.30680878      -0.13262510       0.80792641       0.25335476       0.21190657       0.57295827
H        0.15807461       3.30635880       7.67199554       0.23887052       0.38817742       0.04709362      -0.04778573      -0.41491169      -0.26712496
H       -0.40962891       3.31817540       9.40457306       0.19056639       0.04949222       0.10591186       0.04890468      -0.10024888       0.33718864
H       -1.30076403       5.48007425       9.00145437       0.19861594      -0.02176894       0.01201946      -0.38332237       0.50076658       0.61994561
H       -1.84414107       4.85557689       7.46551745      -0.17602161      -0.04793673       0.24349841      -0.37157252       0.38633688      -0.91356424
9
Properties=species:S:1:pos:R:3:momenta:R:3:forces:R:3 R1=H R2=H R3=CH3 R4=CH3 leaving_group=Cl nucleophile=Cl rxn=sn2 config=rcc label=H_H_CH3_CH3_Cl_Cl_sn2_rcc conformation=0 reactant_id=H_H_CH3_CH3_Cl_none_-_r product_id=H_H_CH3_CH3_none_Cl_sn2_pc mp2_author_energy=-29302.391748605172 mp2_my_energy=0 hash=59123 address=T id=71 energy=-17370.870225260842 pbc="F F F"
C       -0.37702338       4.12875124       8.82866332      -0.52790002       0.24664999       0.69205208       0.79128029      -1.49542651       1.40870939
C       -1.28131614       5.28849296       9.05328393      -0.37025704       0.97904697       0.41607745       0.78189867       1.12646845       0.43430054
H       -0.81663515       5.98897381       9.76618946      -0.06698476      -0.12361771       0.17573180      -0.20460108      -0.29497193      -0.31188246
F       -1.03594113       3.24334505       7.99011091       0.55232367      -0.21603528      -0.29334148       0.46648711       0.11968167       0.53420648
Cl       0.24560263       3.62952635      10.95940311      -0.28996329      -0.24263115       1.63017403      -0.15955199       0.13977276      -0.49816555
H        0.64221717       4.30207881       8.38737560       0.22003981       0.28602083       0.13206395      -1.19249389       0.37281937       0.40500511
H       -0.23220000       3.70876848       9.87592430       0.22850189      -0.06792948      -0.11315973      -0.02316577      -0.11252907      -1.50881598
H       -2.22287708       4.95562900       9.44503727       0.01712393      -0.02359040      -0.21905574      -0.48829306      -0.44749748       0.51369447
H       -1.50881570       5.78605043       8.14051148       0.07228368       0.16888080       0.02505659       0.02843973       0.59168275      -0.97705201
9
Properties=species:S:1:pos:R:3:momenta:R:3:forces:R:3 R1=H R2=H R3=CH3 R4=CH3 leaving_group=Cl nucleophile=Cl rxn=sn2 config=rcc label=H_H_CH3_CH3_Cl_Cl_sn2_rcc conformation=0 reactant_id=H_H_CH3_CH3_Cl_none_-_r product_id=H_H_CH3_CH3_none_Cl_sn2_pc mp2_author_energy=-29302.391748605172 mp2_my_energy=0 hash=59123 address=T id=71 energy=-17370.854618004818 pbc="F F F"
C       -0.22711066       4.70974269       9.79060184       0.87005036      -0.18224167       0.70237543      -2.71980189      -1.52805876       0.93188718
C       -1.60328899       5.38971252       9.87066215       0.08961219      -0.14558729       0.51268534       0.49160089      -0.18888269       0.94959435
H       -1.61247911       6.06763769      10.74066811      -0.17710654       0.07280382      -0.09925905       0.01530849      -0.53142511      -0.17430764
F       -0.11018755       4.03148168       8.60179985       0.53383287       0.60968977       1.06071341       0.08066896      -0.11122833      -0.39173684
Cl      -0.25893214       3.56726402      11.44430966      -1.21672954       0.31515523      -0.41032262       0.62269773       0.58605217      -0.41906943
H        0.37918990       5.55199022       9.75374254      -0.28553687       0.39980698       0.17461229       1.94003134       0.63569942       0.80038634
H       -0.07735760       3.97999897      10.62443143       0.11259247      -0.11597999       0.20713742      -0.04673153       0.79686946      -0.58190460
H       -2.41330348       4.67992811       9.92364501      -0.01674356       0.03251415       0.20234491      -0.32353641      -0.33398234       0.12717461
H       -1.72352477       5.99243557       9.01626297      -0.07249068       0.00650676       0.06099647      -0.06023757       0.67495618      -1.24202396
9
Properties=species:S:1:pos:R:3:momenta:R:3:forces:R:3 R1=H R2=H R3=CH3 R4=CH3 leaving_group=Cl nucleophile=Cl rxn=sn2 config=rcc label=H_H_CH3_CH3_Cl_Cl_sn2_rcc conformation=0 reactant_id=H_H_CH3_CH3_Cl_none_-_r product_id=H_H_CH3_CH3_none_Cl_sn2_pc mp2_author_energy=-29302.391748605172 mp2_my_energy=0 hash=59123 address=T id=71 energy=-17371.127653343992 pbc="F F F"
C       -0.37620409       4.92979353      10.75863886       0.53824788      -0.36205062      -0.08629872       0.22898948       2.89122761      -1.63868877
C       -1.64595720       5.52563087      10.15246673      -0.68556058       0.21578055       0.58974151      -0.17876306      -0.72976548       0.47019560
H       -2.34449107       5.46754292      10.96736669      -0.06347187      -0.09468332       0.07628885      -0.94636378       0.26085041       0.20028297
F        0.55717364       4.95585228       9.73499169       0.88653980       0.23393053       1.12908322       0.06729182      -0.83706972       0.93943353
Cl      -0.61304419       3.49881936      11.68328988      -0.35335330       0.77081231      -0.55333691      -0.05879300      -0.76150261      -0.22446314
H       -0.13917453       5.66989962      11.48555124      -0.11157683       0.08994009      -0.03813540       0.89619925       0.79776162       0.34808511
H       -0.46852722       3.94647197      11.33435083      -0.24419357      -0.13926124       0.18561090      -0.02292028      -1.29212637       0.21761073
H       -2.00158874       4.93585410       9.31626500      -0.03306086      -0.06017853       0.11722226      -0.30418034      -0.36833696      -0.43873370
H       -1.53654070       6.56120954       9.82681401      -0.02457697      -0.09842335      -0.06992377       0.31853990       0.03896151       0.12627768
9
Properties=species:S:1:pos:R:3:momenta:R:3:forces:R:3 R1=H R2=H R3=CH3 R4=CH3 leaving_group=Cl nucleophile=Cl rxn=sn2 config=rcc label=H_H_CH3_CH3_Cl_Cl_sn2_rcc conformation=0 reactant_id=H_H_CH3_CH3_Cl_none_-_r product_id=H_H_CH3_CH3_none_Cl_sn2_pc mp2_author_energy=-29302.391748605172 mp2_my_energy=0 hash=59123 address=T id=71 energy=-17371.095171894605 pbc="F F F"
C       -0.63848638       5.19954944      11.52844765      -0.56723026      -0.78807985       0.91958559       0.97082268       2.38429216      -0.76199583
C       -1.46400914       5.77182025      10.36833349       0.48449305       0.09553920      -0.31717982      -0.65857905      -1.45017569      -0.99471287
H       -2.52066821       5.45514510      10.33379906       0.13719569      -0.10269869      -0.04951411       0.18093101      -0.08496697       0.54769019
F        0.68927665       5.54385793      11.30840249       0.39768888       0.95460607       1.24787593      -0.70218584      -0.42057742       0.33584503
Cl      -0.73903980       3.53095983      11.81232599      -0.65120360       0.49438732      -0.46272418      -1.15243844      -1.34248759       0.13450391
H       -0.91532376       5.77973777      12.38122257       0.28401618       0.10998021       0.52359659      -0.33960930       0.54967009       0.40872392
H       -0.79598878       4.10064133      11.80879005       0.03619869       0.42873843       0.03544690       1.25170144      -0.38890556      -0.62202560
H       -1.09465555       5.48702072       9.35862558      -0.04219983      -0.11390351       0.14976701       0.30930778      -0.38806213       0.45399715
H       -1.44774231       6.83683182      10.32920094      -0.21987384      -0.21786019       0.04388938       0.14004973       1.14121311       0.49797411
9
Properties=species:S:1:pos:R:3:momenta:R:3:forces:R:3 R1=H R2=H R3=CH3 R4=CH3 leaving_group=Cl nucleophile=Cl rxn=sn2 config=rcc label=H_H_CH3_CH3_Cl_Cl_sn2_rcc conformation=0 reactant_id=H_H_CH3_CH3_Cl_none_-_r product_id=H_H_CH3_CH3_none_Cl_sn2_pc mp2_author_energy=-29302.391748605172 mp2_my_energy=0 hash=59123 address=T id=71 energy=-17370.973386059748 pbc="F F F"
C       -0.77747496       5.48510569      12.11051879       0.96966103       0.27441794      -0.53377857       0.07139964      -0.33597936       1.00718677
C       -0.76023451       6.25789238      10.83594387       0.46020738       0.58752530       0.74021651       0.14769326       1.56550353      -0.83365400
H       -1.78779102       6.09763966      10.45095621       0.10766383      -0.19074080       0.13411233       0.49170576       0.16002483      -0.39668208
F        0.08284290       5.93285102      13.08261974      -0.82324843       0.66187196       1.11046481       1.03122044       0.28431107      -0.09079139
Cl      -0.76493578       3.65143466      12.01476480      -0.30501145      -0.01115876       0.11948476       0.26389413       0.35799849      -0.85047302
H       -1.70704191       5.73220718      12.50859457      -0.23912206      -0.28823129       0.09867960      -1.86601318       0.68681751       0.63607095
H       -0.74294205       4.38017282      11.99810240      -0.18980574      -0.13617267       0.12833044       0.28612006      -1.11807256       0.44923074
H        0.00885523       5.94328459      10.09650976      -0.14718993      -0.03636163       0.18843211      -0.33259049       0.10439139       0.35640519
H       -0.64084105       7.38014595      11.07813340       0.03549259      -0.05884730      -0.03707292      -0.09342961      -1.70499490      -0.27729316
9
Properties=species:S:1:pos:R:3:momenta:R:3:forces:R:3 R1=H R2=H R3=CH3 R4=CH3 leaving_group=Cl nucleophile=Cl rxn=sn2 config=rcc label=H_H_CH3_CH3_Cl_Cl_sn2_rcc conformation=0 reactant_id=H_H_CH3_CH3_Cl_none_-_r product_id=H_H_CH3_CH3_none_Cl_sn2_pc mp2_author_energy=-29302.391748605172 mp2_my_energy=0 hash=59123 address=T id=71 energy=-17371.08916595445 pbc="F F F"
C       -0.97479078       5.59285471      12.50243502       0.46401700      -0.48253258       0.03739332       1.69582777       2.09980556      -0.57185600
C       -0.14166594       6.55111645      11.58361983      -0.18661303       0.59970088      -0.19773400       0.24604405      -0.53810593      -0.52341572
H       -0.23594490       6.29909536      10.51183023       0.06100777       0.07671119      -0.00465848       0.19127759      -0.46933898       0.33410147
F       -0.55504414       5.90128152      13.76313311      -0.57119210       0.13188570       1.34548239       0.03340563       0.28628759       1.79457893
Cl      -0.69987997       3.92100909      12.21661897       0.00139402       0.13079245       0.33446706       0.02527317      -0.62741885      -0.85303313
H       -1.98745605       5.89856448      12.49408170      -0.10622498       0.04052184      -0.22216473      -1.01436346       0.11982937      -0.46783458
H       -0.85191149       4.48609007      12.29610296      -0.01579140       0.05071003      -0.05239321      -0.07110953      -0.75891394       0.16374943
H        0.93987550       6.48396514      11.93270843       0.02706123      -0.13743648       0.11753647      -1.02363110       0.10628850      -0.55595305
H       -0.45904447       7.60545843      11.59471521       0.23217462       0.16481821       0.03921637      -0.08272411      -0.21843331       0.67966264
9
Properties=species:S:1:pos:R:3:momenta:R:3:forces:R:3 R1=H R2=H R3=CH3 R4=CH3 leaving_group=Cl nucleophile=Cl rxn=sn2 config=rcc label=H_H_CH3_CH3_Cl_Cl_sn2_rcc conformation=0 reactant_id=H_H_CH3_CH3_Cl_none_-_r product_id=H_H_CH3_CH3_none_Cl_sn2_pc mp2_author_energy=-29302.391748605172 mp2_my_energy=0 hash=59123 address=T id=71 energy=-17370.973913879712 pbc="F F F"
C       -0.87645576       5.85461574      13.02219869      -0.33607704      -0.19572504      -0.18990864       1.11121250       0.52847754      -3.13173575
C        0.36277518       6.82668623      13.00030412      -0.36709774      -0.14129839       1.19755061       0.16625718      -0.56024504      -0.66270459
H        0.86225596       6.86204749      11.99273166       0.32525758       0.12089045       0.06374543      -0.32373650      -0.44180134       0.90975731
F       -1.36568751       5.98830619      14.27492452       0.15075883       0.04329126       0.26331405      -1.31798331      -0.26364345       1.44628586
Cl      -0.62178496       4.17222909      12.41364973      -0.02281578       0.49248778       0.74757260       0.08568436       1.08271639       0.69095461
H       -1.50918929       6.27226534      12.22460476       0.19743648       0.33835389      -0.09099448      -0.33082886       0.25984725       1.08254639
H       -0.75853780       4.72162313      12.65644440       0.01126396      -0.22753131      -0.06105826       0.99668453       0.63767867       0.34223152