9
Properties=species:S:1:pos:R:3:momenta:R:3:forces:R:3 R1=H R2=H R3=CH3 R4=CH3 leaving_group=Cl nucleophile=Cl rxn=sn2 config=rcc label=H_H_CH3_CH3_Cl_Cl_sn2_rcc conformation=0 reactant_id=H_H_CH3_CH3_Cl_none_-_r product_id=H_H_CH3_CH3_none_Cl_sn2_pc mp2_author_energy=-29302.391748605172 mp2_my_energy=0 hash=59123 address=T id=71 energy=-17370.412368016237 pbc="F F F"
C        0.12542541       0.11270554      -0.00029240       0.27814041       0.04398252      -0.50061608      -0.09214561       1.11788396      -0.00082481
C        1.62503867       0.00847468       0.00156754       0.68688217       0.19767777       0.81005083      -0.06338950      -0.85342640       0.00215309
H        1.99473018      -0.50605055       0.89354482      -0.01915222      -0.16450543       0.06475305       0.00320508       0.00300841       0.00517082
F        0.89788639       2.64149152      -0.00442372       0.73714801      -0.35219831       0.55725914      -0.23271315      -0.10403772      -0.00076135
Cl      -0.69504884      -1.53494042       0.00509220      -0.41323790      -0.54434495      -0.18167096       0.38207948      -0.16174994      -0.00050876
H       -0.22306082       0.64592326      -0.87549887       0.14238286       0.17099688      -0.05219208      -0.00302890      -0.00293595      -0.00472561
H       -0.22431889       0.65275656       0.87018381      -0.09247507      -0.30743543       0.21189083      -0.00396382      -0.00350204       0.00469305
H        1.88822962       1.08069343      -0.00059746      -0.20949447       0.04246618       0.03557029       0.00778691       0.00253743      -0.00033365
H        1.99700981      -0.51031959      -0.88698835      -0.11478132      -0.07961182       0.05164293       0.00216950       0.00222225      -0.00486279
9
Properties=species:S:1:pos:R:3:momenta:R:3:forces:R:3 R1=H R2=H R3=CH3 R4=CH3 leaving_group=Cl nucleophile=Cl rxn=sn2 config=rcc label=H_H_CH3_CH3_Cl_Cl_sn2_rcc conformation=0 reactant_id=H_H_CH3_CH3_Cl_none_-_r product_id=H_H_CH3_CH3_none_Cl_sn2_pc mp2_author_energy=-29302.391748605172 mp2_my_energy=0 hash=59123 address=T id=71 energy=-17370.30274497987 pbc="F F F"
C        0.60433166      -0.20954867       0.34690178      -0.25305321      -0.91868218      -0.15644361       0.50528369      -1.48268862      -0.54565982
C        1.43701468      -0.88974815       1.46124528       0.30061106      -0.04737435       1.16973615      -1.05197642       0.78779506      -1.13507651
H        0.67389583      -1.24489930       2.14926984      -0.02867906       0.17951034      -0.00998620       0.25033136      -0.18762694       0.52927210
F        1.91095554       1.95574912       0.98480904       0.94068620      -1.08017064       1.08810786       0.59394014       0.83271527       0.44225142
Cl      -0.44963893      -1.54975854      -0.38816565       0.15645566       0.24242614      -0.90524213      -0.17216634       0.18495282       0.31090930
H        1.19481960       0.16061486      -0.50072182       0.27175591       0.06296072       0.04660510      -0.16791980       0.05019428       0.73131252
H        0.03601530       0.59824050       0.80348438      -0.06506767      -0.06976690       0.06641014      -0.15309260      -0.20672886      -0.40287793
H        1.99683696      -0.01311022       1.83096414       0.07192835       0.15763844       0.00334802       0.13488884      -0.38705782      -0.04397326
H        2.01536581      -1.74673188       1.08888155       0.03178406       0.05053343       0.12571373       0.06071112       0.40844481       0.11384219
9
Properties=species:S:1:pos:R:3:momenta:R:3:forces:R:3 R1=H R2=H R3=CH3 R4=CH3 leaving_group=Cl nucleophile=Cl rxn=sn2 config=rcc label=H_H_CH3_CH3_Cl_Cl_sn2_rcc conformation=0 reactant_id=H_H_CH3_CH3_Cl_none_-_r product_id=H_H_CH3_CH3_none_Cl_sn2_pc mp2_author_energy=-29302.391748605172 mp2_my_energy=0 hash=59123 address=T id=71 energy=-17370.209811024357 pbc="F F F"
C        1.28917052      -0.73383133       0.81571354      -0.14069507      -0.07394441       0.82281438      -0.04980096      -0.28850763      -0.86111021
C        0.49201223      -1.10426704       2.03511870      -0.01717762       0.16207578      -0.58617724       1.12944662       0.72803845       0.63892913
H       -0.42424030      -0.51244448       1.93984773      -0.07273259       0.02870512       0.06879885      -0.16488116      -0.48773180       0.43280005
F        3.04978722       0.32400779       2.45098280       0.69119486      -1.36349864       0.87417720       0.08803832       0.12180767       0.27270996
Cl       0.19059013      -1.48925782      -0.48254488       1.20267586      -0.02174217       0.16235056      -0.09801170       0.41676167      -0.60121710
H        2.25161755      -1.21387051       0.59916329      -0.02134786      -0.00759571      -0.07368183      -0.38445172       0.42041299       0.84753206
H        1.37458927       0.36759654       0.73122588       0.09832700      -0.09271228       0.20758306      -0.03068955      -0.90704612      -0.21137044
H        1.08590705      -0.77353306       2.90746802      -0.06143090       0.04908107      -0.13983896      -0.11905820       0.08056543      -0.47480001
H        0.33969923      -2.17743514       2.09678331      -0.24888389      -0.10679366       0.09573602      -0.37059164      -0.08430066      -0.04347344
9
Properties=species:S:1:pos:R:3:momenta:R:3:forces:R:3 R1=H R2=H R3=CH3 R4=CH3 leaving_group=Cl nucleophile=Cl rxn=sn2 config=rcc label=H_H_CH3_CH3_Cl_Cl_sn2_rcc conformation=0 reactant_id=H_H_CH3_CH3_Cl_none_-_r product_id=H_H_CH3_CH3_none_Cl_sn2_pc mp2_author_energy=-29302.391748605172 mp2_my_energy=0 hash=59123 address=T id=71 energy=-17370.289596077386 pbc="F F F"
C        1.73971154      -1.45066457       1.40394045       0.04282300      -0.45727492      -0.16404124       0.72048931      -0.12435672       1.20872369
C        0.82241906      -0.65460513       2.28490768      -0.02726472       0.18265020      -0.69505303      -0.66252702       0.85192179       0.32151412
H        0.63421204       0.38886994       1.99823877       0.12657120       0.03335573      -0.16894604       0.48873609      -0.12289799      -0.28624446
F        2.99954875      -1.83416036       3.58574307       0.00813172      -1.20748581       0.88216636      -0.32355132       0.03938601      -0.58017588
Cl       1.00864891      -1.32644037      -0.34057489       0.73439776       0.47871135       1.33275225      -0.22070689      -0.33174685      -0.10898617
H        1.77108903      -2.47009633       1.83931483       0.15247354       0.02999938      -0.14627656       0.26581730       0.57656966      -0.91336110
H        2.74637291      -1.02155548       1.28346589      -0.05945228      -0.07175271      -0.00332714      -0.64233803      -0.37823049       0.44941437
H        1.32704504      -0.69587516       3.25097724      -0.00128673      -0.03769558      -0.00278388       0.13409265      -0.10205155       0.06076967
H       -0.18588862      -1.07607336       2.38017585       0.06398966       0.01165930       0.00722554       0.23998791      -0.40859385      -0.15165423
9
Properties=species:S:1:pos:R:3:momenta:R:3:forces:R:3 R1=H R2=H R3=CH3 R4=CH3 leaving_group=Cl nucleophile=Cl rxn=sn2 config=rcc label=H_H_CH3_CH3_Cl_Cl_sn2_rcc conformation=0 reactant_id=H_H_CH3_CH3_Cl_none_-_r product_id=H_H_CH3_CH3_none_Cl_sn2_pc mp2_author_energy=-29302.391748605172 mp2_my_energy=0 hash=59123 address=T id=71 energy=-17370.1391144707 pbc="F F F"
C        2.03218390      -1.95246492       1.91907081       0.10962120      -0.28192427       0.79911875      -0.72726864      -0.47045118      -0.92840484
C        2.04957960      -0.80513255       2.83923142       0.64703729      -0.36946256       0.55775995      -0.92561840       0.38063265       0.46895836
H        2.89570922      -0.14256764       2.79083980       0.24472036      -0.06511815      -0.09877393       0.24597840       0.46919348      -0.46046900
F        2.11360063      -3.30608568       3.90482693      -0.87534845      -0.75123938       0.00244598       0.05843464      -0.71143707       0.97445187
Cl       1.83309862      -1.23103921       0.02616246       1.17406613       0.17437759       0.37407978       0.12148184       0.10099109       0.48060895
H        1.13113436      -2.56466671       2.08708408       0.15956210      -0.09143804      -0.20842700       0.81593958       0.25105296      -0.39478701
H        2.94173701      -2.52430317       1.90688948      -0.15377841       0.07178076       0.08822686       0.01968021      -0.21687996      -0.21612813
H        2.07684808      -1.32299426       3.79539259       0.09633381      -0.18326642      -0.15042983       0.14250216      -0.34283109       0.19003821
H        1.07700449      -0.31002313       2.79475834      -0.00438591       0.10188856       0.03561868       0.24887022       0.53972912      -0.11426840
9
Properties=species:S:1:pos:R:3:momenta:R:3:forces:R:3 R1=H R2=H R3=CH3 R4=CH3 leaving_group=Cl nucleophile=Cl rxn=sn2 config=rcc label=H_H_CH3_CH3_Cl_Cl_sn2_rcc conformation=0 reactant_id=H_H_CH3_CH3_Cl_none_-_r product_id=H_H_CH3_CH3_none_Cl_sn2_pc mp2_author_energy=-29302.391748605172 mp2_my_energy=0 hash=59123 address=T id=71 energy=-17369.974479813554 pbc="F F F"
C        2.13869695      -2.59290634       2.40928803      -0.25331118      -0.81584608       0.05267348      -0.18743366       0.02406362      -1.04747536
C        3.29612306      -2.33012723       3.28143664       0.67941063      -0.88115477       0.37566292       0.48303695      -0.54276331       1.15906371
H        4.19781270      -2.59480214       2.77092189       0.03607724      -0.00073951      -0.01710057       0.63659737      -0.31988860      -0.51305338
F        1.09564690      -3.99314437       3.89534156      -0.24968052      -0.12834268       0.02285047      -0.21526495      -0.44408762       0.50211382
Cl       2.90446498      -1.07450018       0.77964578       1.67182501       0.26005486       1.15370583      -0.07445720      -0.00711025      -0.18188360
H        1.20717705      -2.04440469       2.55410312       0.13009568       0.02134642       0.19881456       0.41711884      -0.36313955      -0.18695239
H        2.19330882      -3.46167250       1.72008940      -0.27605054       0.16325097      -0.12199042      -0.25621956       0.91277445       0.60195753
H        3.27791631      -2.92580738       4.20925066      -0.29933498      -0.05151213      -0.14774670      -0.46881440       0.17671956      -0.46958277
H        3.42735798      -1.29220951       3.53587658      -0.01851307       0.01590650      -0.09453109      -0.33456339       0.56343169       0.13581243
9
Properties=species:S:1:pos:R:3:momenta:R:3:forces:R:3 R1=H R2=H R3=CH3 R4=CH3 leaving_group=Cl nucleophile=Cl rxn=sn2 config=rcc label=H_H_CH3_CH3_Cl_Cl_sn2_rcc conformation=0 reactant_id=H_H_CH3_CH3_Cl_none_-_r product_id=H_H_CH3_CH3_none_Cl_sn2_pc mp2_author_energy=-29302.391748605172 mp2_my_energy=0 hash=59123 address=T id=71 energy=-17370.048405511898 pbc="F F F"
C        2.34381234      -2.95995205       2.81166128       0.25888479      -0.56901175       0.40937270      -0.43219297       1.37150798      -0.08380783
C        3.30736977      -4.00887276       3.03041641      -0.04399513      -0.09559310      -0.95819460       1.32604715       0.26020131       0.11935576
H        3.32460608      -4.64208673       2.16562154      -0.03928445       0.10220011       0.11400748       0.28004886      -0.69597638      -0.20586605
F        0.86883684      -4.12600673       3.92500968      -0.00824106       0.19751824       0.06117888      -0.72358166      -0.38773809       0.35727427
Cl       3.86880586      -1.08289465       1.64143167       1.47695987      -0.98229544       2.27517169       0.21405215      -0.04560402      -0.01679675
H        2.34995795      -2.23731927       3.61157815       0.02883090      -0.00808186      -0.01191996      -0.43228991       0.50616743      -0.37879102
H        1.89819389      -2.75558473       1.84242441      -0.01288153      -0.04836708      -0.18980494       0.12832687       0.02209804       0.40847155
H        2.82910477      -4.45381770       3.88899794      -0.08579623      -0.10234448      -0.12435827       0.22011041      -0.74494526       0.15844910
H        4.31046314      -3.60036310       3.27952302       0.04253947      -0.10707780       0.04363563      -0.58052090      -0.28571102      -0.35828903
9
Properties=species:S:1:pos:R:3:momenta:R:3:forces:R:3 R1=H R2=H R3=CH3 R4=CH3 leaving_group=Cl nucleophile=Cl rxn=sn2 config=rcc label=H_H_CH3_CH3_Cl_Cl_sn2_rcc conformation=0 reactant_id=H_H_CH3_CH3_Cl_none_-_r product_id=H_H_CH3_CH3_none_Cl_sn2_pc mp2_author_energy=-29302.391748605172 mp2_my_energy=0 hash=59123 address=T id=71 energy=-17370.221633659647 pbc="F F F"
C        2.75817727      -3.55332796       3.41794255       0.05532730      -0.54438013      -0.28171921       0.31315058      -1.46750223      -0.83105296
C        2.96490857      -4.20145154       2.06661985      -0.50526547       0.23136665      -0.30267027      -2.96073426       0.48296634      -0.19278501
H        2.42775683      -5.15503172       2.06673756       0.02533808      -0.12619568      -0.02921017       0.06171984      -0.04232236       0.37267719
F        0.82937403      -4.31658527       3.74449040       0.05084602      -0.09713077      -0.06915710       0.70192972       0.11258068      -0.19893729
Cl       5.09655731      -1.88026815       3.14430533       1.86944899      -1.36378433       2.35494051       0.01312438      -0.15831611      -0.03302261
H        3.17812411      -4.11615326       4.21482035       0.26076211       0.03575348       0.22600861       0.09745256       0.02979065       0.77310879
H        2.67981624      -2.51035766       3.51187321       0.00921795      -0.19090121      -0.09466186      -0.19411327       0.78892962       0.05480784
H        3.93607008      -4.36203831       1.68746892       0.03852798       0.20118581      -0.07646087       1.43977475       0.30316463       0.11112686
H        2.37173842      -3.61263098       1.34346436      -0.01793337       0.07219491       0.06148881       0.52769571      -0.04929121      -0.05592282
9
Properties=species:S:1:pos:R:3:momenta:R:3:forces:R:3 R1=H R2=H R3=CH3 R4=CH3 leaving_group=Cl nucleophile=Cl rxn=sn2 config=rcc label=H_H_CH3_CH3_Cl_Cl_sn2_rcc conformation=0 reactant_id=H_H_CH3_CH3_Cl_none_-_r product_id=H_H_CH3_CH3_none_Cl_sn2_pc mp2_author_energy=-29302.391748605172 mp2_my_energy=0 hash=59123 address=T id=71 energy=-17370.50205539646 pbc="F F F"
C        3.07373047      -4.05580169       3.56610861       0.57260354      -1.46360658      -0.66845687       0.42641085      -0.81519330      -0.54317563
C        3.12319003      -3.29583664       2.25752140      -0.89230788       0.17213699       1.04259997      -0.14674866      -0.86799213       1.28426654
H        2.88611599      -4.10579053       1.58207917       0.18341891       0.19402060      -0.11328422       0.11919698       0.26814201      -0.79613596
F        1.16601651      -4.49513259       3.42017162       1.40681290       1.03500690      -0.36320098       0.70671819       0.12446108      -0.14729737
Cl       5.76272102      -3.00661364       4.21187113       0.37889890      -2.06984811       1.86650593       0.31622318       0.06390411       0.09528514
H        3.51125781      -5.08935112       3.57382554       0.09556692       0.02785505       0.06135876      -0.69290959       1.28437601       0.08100091
H        2.99863904      -3.54362917       4.50041976      -0.02768641      -0.04282230      -0.03819548      -0.06705567       0.09137944       0.13623110
H        4.07118308      -2.78115427       2.09016062       0.24995856       0.09518634       0.11271044      -0.10610219      -0.49987542       0.00585361
H        2.31912991      -2.58487141       2.26423029      -0.00852672       0.09813343       0.06121105      -0.55573309       0.35079819      -0.11602834
9
Properties=species:S:1:pos:R:3:momenta:R:3:forces:R:3 R1=H R2=H R3=CH3 R4=CH3 leaving_group=Cl nucleophile=Cl rxn=sn2 config=rcc label=H_H_CH3_CH3_Cl_Cl_sn2_rcc conformation=0 reactant_id=H_H_CH3_CH3_Cl_none_-_r product_id=H_H_CH3_CH3_none_Cl_sn2_pc mp2_author_energy=-29302.391748605172 mp2_my_energy=0 hash=59123 address=T id=71 energy=-17370.7916880193 pbc="F F F"
C        3.45664123      -4.35354423       3.70537979       0.38315436      -0.63404712      -0.59265403      -0.55499758      -0.99190751       1.48432859
C        3.64616931      -2.89384712       3.68309748       0.17540245      -0.46857714       0.99917459       1.46567840       0.45340431       0.96299288
H        4.27257998      -2.51683081       2.89418871       0.21062918       0.15764999       0.27539933       0.12887631      -0.04948944      -0.71740765
F        1.95115335      -4.36699477       2.68002549       0.66446499       1.08509086      -0.11282963      -0.21885295      -0.19952958      -0.19391864
Cl       6.26284973      -4.42995421       5.23572040       0.89385990      -1.36425531       1.60732607       0.01656759      -0.08282718       0.05399730
H        4.10005467      -5.10409492       3.22151214      -0.24396382      -0.26007898      -0.09735235      -0.45006486       0.91721160       0.19358867
H        3.02382141      -4.67185125       4.70000990      -0.08815525      -0.05124390      -0.22064690       0.51023396      -0.00574083      -1.40293513
H        4.23703143      -2.68749133       4.59839348      -0.13276345      -0.29307535       0.00455179      -0.43000964       0.10805304      -0.39056094
H        2.71179462      -2.35277584       3.69166921       0.00180941      -0.03133090       0.00385790      -0.46743123      -0.14917441       0.00991492
9
Properties=species:S:1:pos:R:3:momenta:R:3:forces:R:3 R1=H R2=H R3=CH3 R4=CH3 leaving_group=Cl nucleophile=Cl rxn=sn2 config=rcc label=H_H_CH3_CH3_Cl_Cl_sn2_rcc conformation=0 reactant_id=H_H_CH3_CH3_Cl_none_-_r product_id=H_H_CH3_CH3_none_Cl_sn2_pc mp2_author_energy=-29302.391748605172 mp2_my_energy=0 hash=59123 address=T id=71 energy=-17371.101737527828 pbc="F F F"
C        4.37341993      -4.15186372       3.78060107       0.10730383      -0.29447453       0.17545613       0.56108218       1.09887610      -0.69647671
C        3.68160165      -3.49649401       4.94229808       0.33814519      -0.81950622       0.00741888      -0.34249645       0.52499674      -1.00450821
H        4.01184706      -2.44751337       4.95290867       0.15230666      -0.06884724       0.08974438      -0.48884870      -0.17036821      -0.10234722
F        3.25067875      -3.84014712       2.50548285       1.00593166       1.27287279       0.39396186       0.58821987       0.16526872       0.38637936
Cl       6.34767843      -5.69940839       5.93551198       0.20637878      -1.47129169       1.32533338       0.28200692      -0.15069345       0.21261827
H        5.33179275      -3.59662879       3.56833158       0.10211079      -0.20289675       0.25939578      -1.19996195      -0.71999495      -0.23095000
H        4.51352022      -5.21155979       3.63671895       0.11471650       0.00740806      -0.27514627      -0.39252727       0.07328528       0.52223644
H        4.07677216      -3.91386406       5.82644827      -0.12703393      -0.17371247      -0.19201091       0.44602158      -0.76205189       1.21162586
H        2.57985045      -3.56106734       4.94335408      -0.09403775      -0.05094745       0.02398243       0.54650382      -0.05931834      -0.29857778
9
Properties=species:S:1:pos:R:3:momenta:R:3:forces:R:3 R1=H R2=H R3=CH3 R4=CH3 leaving_group=Cl nucleophile=Cl rxn=sn2 config=rcc label=H_H_CH3_CH3_Cl_Cl_sn2_rcc conformation=0 reactant_id=H_H_CH3_CH3_Cl_none_-_r product_id=H_H_CH3_CH3_none_Cl_sn2_pc mp2_author_energy=-29302.391748605172 mp2_my_energy=0 hash=59123 address=T id=71 energy=-17371.1672066944 pbc="F F F"
C        5.13531199      -4.25833562       4.43624048       0.01012174      -0.00689416       0.12784701       0.66315860       1.20439958      -0.09278266
C        3.76593098      -4.61002365       4.93496643       0.96599891      -0.89940643      -0.15540759      -0.34449196       0.63638021      -2.68816984
H        3.15758520      -3.68585475       4.91589911       0.09809853      -0.12807291      -0.08639479       0.33729135      -0.45307104       0.13465115
F        4.76999427      -3.01595235       3.28165633       1.13568665       0.13053714       1.05597688      -0.13736674      -0.65124133       0.01471508
Cl       6.32017129      -6.72569162       6.37962418      -0.96598861      -0.57569222       0.03315936       0.07388022      -0.06718845       0.05904397
H        5.66317134      -3.52592729       5.03601581       0.14795009       0.00397479       0.31787774       0.08876895      -0.48390600       0.29068058
H        5.83228264      -4.94515557       3.93086024       0.00358804       0.14196934      -0.03019939      -0.93575118       0.21423458       0.25773928
H        3.82528528      -5.05055515       5.87733299       0.06308592      -0.03359516       0.16388398       0.16264271      -0.70059217       1.78899955
H        3.29471011      -5.34214190       4.25541091       0.02921176      -0.11692680       0.06291619       0.09186807       0.30098463       0.23512288
9
Properties=species:S:1:pos:R:3:momenta:R:3:forces:R:3 R1=H R2=H R3=CH3 R4=CH3 leaving_group=Cl nucleophile=Cl rxn=sn2 config=rcc label=H_H_CH3_CH3_Cl_Cl_sn2_rcc conformation=0 reactant_id=H_H_CH3_CH3_Cl_none_-_r product_id=H_H_CH3_CH3_none_Cl_sn2_pc mp2_author_energy=-29302.391748605172 mp2_my_energy=0 hash=59123 address=T id=71 energy=-17371.035994285277 pbc="F F F"
C        5.74947921      -4.42572269       5.15503432       0.47505364       0.52643632       1.12277162       1.53153958      -2.11524434       0.96403804
C        4.65242514      -4.99560806       4.29222504       1.02632981      -0.15581388      -0.35538410      -0.28041094       0.58065214       0.92184063
H        3.74209149      -4.61570379       4.76759188       0.10058428      -0.08595402      -0.00655967      -0.21262315      -0.15824645      -0.47780234
F        5.74348463      -2.86121214       4.47718135       0.48167947      -0.67595703       1.01456997       0.44046602       0.78608724      -0.62624872
Cl       6.15719245      -7.54055381       6.69692972      -0.80598630      -1.34207446       0.06249602      -0.06348378       0.46772200      -0.24567949
H        5.53851174      -4.01936191       6.15956048       0.12478232      -0.08769010      -0.01299271       0.00046754      -0.93845476      -0.71531097
H        6.76803256      -4.96446274       5.07671801       0.21472825       0.03347648       0.07020308      -1.71549702       1.42478863      -0.01347007
H        4.60577129      -6.08444955       4.29102767       0.21319243      -0.11822674      -0.00750830       0.27498259       0.08566288       0.11278589
H        4.74311586      -4.57398661       3.28822925       0.07366127       0.00644520       0.01886899       0.02455915      -0.13296735       0.07984704
9
Properties=species:S:1:pos:R:3:momenta:R:3:forces:R:3 R1=H R2=H R3=CH3 R4=CH3 leaving_group=Cl nucleophile=Cl rxn=sn2 config=rcc label=H_H_CH3_CH3_Cl_Cl_sn2_rcc conformation=0 reactant_id=H_H_CH3_CH3_Cl_none_-_r product_id=H_H_CH3_CH3_none_Cl_sn2_pc mp2_author_energy=-29302.391748605172 mp2_my_energy=0 hash=59123 address=T id=71 energy=-17371.202048017338 pbc="F F F"
C        6.45066449      -4.98388142       6.02195806       0.85082107      -0.51876340       0.88002462      -1.87260490      -0.91620277      -0.40527515
C        6.86998523      -5.38442140       4.61879797       0.40716231       0.12135141       1.06267745      -0.06547529       0.76679344       0.21023922
H        6.39142376      -4.72772363       3.88251329       0.21046971       0.11419148      -0.01163939      -0.10530281      -0.14180457       0.21737975
F        6.64825937      -3.30376590       6.04929209       0.63515438      -0.26771678      -0.15157910       0.76246849       1.17663212      -0.07517157
Cl       5.76592226      -8.21497781       6.69353293      -0.69257607      -1.54323348      -0.40932757      -0.01152100      -0.04189434       0.03915628
H        5.34691899      -4.87971680       6.24414211       0.05785815       0.09861052      -0.00293313       1.49506208      -0.86360046      -0.56508786
H        7.00076373      -5.40709157       6.84795962      -0.10403561       0.11995851       0.04058442       0.17951174       0.16925298       0.04867856
H        6.58461385      -6.41438825       4.45314542       0.22026895       0.11197176       0.05297103      -0.24402443      -0.27761936       0.04708445
H        7.94829051      -5.31866346       4.42754938       0.09036570       0.09224819       0.21685717      -0.13811387       0.12844298       0.48299633
9
Properties=species:S:1:pos:R:3:momenta:R:3:forces:R:3 R1=H R2=H R3=CH3 R4=CH3 leaving_group=Cl nucleophile=Cl rxn=sn2 config=rcc label=H_H_CH3_CH3_Cl_Cl_sn2_rcc conformation=0 reactant_id=H_H_CH3_CH3_Cl_none_-_r product_id=H_H_CH3_CH3_none_Cl_sn2_pc mp2_author_energy=-29302.391748605172 mp2_my_energy=0 hash=59123 address=T id=71 energy=-17371.18653735865 pbc="F F F"
C        7.06018417      -5.43476714       6.44068883       0.52680405      -0.95609772       0.40442360      -1.82362170      -0.09101039       1.00534201
C        8.32741197      -6.10670263       6.12746903      -0.04363538      -1.01924631       0.90228997       1.27461324       1.42778097       0.48991281
H        8.72381894      -5.75862107       5.16158136       0.05343597      -0.13139953       0.11201378       0.08548614      -0.06692179       0.42052795
F        7.29964249      -3.81182158       6.97017350       0.37790170       0.26225666       0.69886180       0.44293059      -0.54973016      -0.44575400
Cl       5.60762823      -8.49965534       6.44782289       0.49398358       0.33788201      -0.69684583      -0.08665616       0.01430981      -0.03172620
H        6.44939711      -5.29390754       5.57091885       0.12699221       0.20704425       0.11001728      -0.48473514       0.22384663      -0.18160446
H        6.45775678      -5.80082925       7.29580739       0.21084187      -0.09110456      -0.12227072       0.73251302       0.11366299      -0.74292539
H        8.09198474      -7.14559212       6.06952755      -0.08715269      -0.23552015       0.04244176      -0.18662776      -0.88836023      -0.06721281
H        9.03712948      -5.91909730       6.95040844      -0.07698348       0.04787561       0.13328356       0.04609775      -0.18357783      -0.44655991
9
Properties=species:S:1:pos:R:3:momenta:R:3:forces:R:3 R1=H R2=H R3=CH3 R4=CH3 leaving_group=Cl nucleophile=Cl rxn=sn2 config=rcc label=H_H_CH3_CH3_Cl_Cl_sn2_rcc conformation=0 reactant_id=H_H_CH3_CH3_Cl_none_-_r product_id=H_H_CH3_CH3_none_Cl_sn2_pc mp2_author_energy=-29302.391748605172 mp2_my_energy=0 hash=59123 address=T id=71 energy=-17371.265646135133 pbc="F F F"
C        7.69974256      -6.07404286       7.20107379       0.66768898      -0.10751103      -0.11373489       0.29211298       1.60237123       1.19954401
C        8.51911059      -6.93259732       8.07272027      -0.13442177      -1.35779466       0.71493732       0.91761638      -0.63068262       0.56932306
H        9.61894830      -6.80144887       7.93300594      -0.02658910      -0.29759822       0.15429345      -0.82785281       0.06928128      -0.40489757
F        8.44827739      -4.58754599       7.69469109       0.36898959       0.34730749       0.54050473      -0.31936368      -0.19357959      -0.46642411
Cl       5.76389603      -8.59492233       6.04146286       0.77986411       0.21219993       0.02746524       0.09163917       0.00058799       0.05631604
H        7.88150076      -6.12847654       6.14901089       0.20257361       0.08237808       0.21672573       0.00990945       0.05209934      -0.47773277
H        6.67552371      -5.85603937       7.50419314       0.01513353      -0.05814279      -0.06200618       0.24206258      -0.27167798      -0.23191841
H        8.23920529      -7.94456605       7.84580167      -0.35494028      -0.21611481       0.08369807      -0.00204711      -0.75004672       0.07435762
H        8.37779428      -6.74489323       9.14516861      -0.01271229      -0.10662001      -0.05436790      -0.40407695       0.12164707      -0.31856787
9
Properties=species:S:1:pos:R:3:momenta:R:3:forces:R:3 R1=H R2=H R3=CH3 R4=CH3 leaving_group=Cl nucleophile=Cl rxn=sn2 config=rcc label=H_H_CH3_CH3_Cl_Cl_sn2_rcc conformation=0 reactant_id=H_H_CH3_CH3_Cl_none_-_r product_id=H_H_CH3_CH3_none_Cl_sn2_pc mp2_author_energy=-29302.391748605172 mp2_my_energy=0 hash=59123 address=T id=71 energy=-17371.133460797468 pbc="F F F"
C        8.26805878      -6.74457895       7.98791633       0.85675536      -0.31976366       0.45068127       0.40913156      -0.70344048       0.38841444
C        7.88252966      -7.43086632       9.24900804       0.60938788       0.71503445       0.56600697       0.45915790       0.05468996       0.62792169
H        8.45017443      -8.35327060       9.31411377      -0.08967511       0.16497299       0.04415547      -0.06790174      -0.24443914       0.12938672
F        9.60732333      -5.98072533       8.74718171       0.49560735      -2.69867646       1.79867090       0.75140606       0.54857069      -0.47593215
Cl       6.34168802      -8.52185410       5.81798118       0.94116251      -0.04692699      -0.51818997      -0.04119456      -0.02617187       0.07391388
H        8.60079275      -7.38934170       7.17088106      -0.20536083       0.05762384       0.03655700       0.00892987       0.49637840       0.20206143
H        7.65080118      -5.91989355       7.73318113      -0.03503461      -0.10678332      -0.02089963      -0.26290132       0.65822749      -0.49178053