9
Properties=species:S:1:pos:R:3:momenta:R:3:forces:R:3 R1=H R2=H R3=CH3 R4=CH3 leaving_group=Cl nucleophile=Cl rxn=sn2 config=rcc label=H_H_CH3_CH3_Cl_Cl_sn2_rcc conformation=0 reactant_id=H_H_CH3_CH3_Cl_none_-_r product_id=H_H_CH3_CH3_none_Cl_sn2_pc mp2_author_energy=-29302.391748605172 mp2_my_energy=0 hash=59123 address=T id=71 energy=-17370.412368016237 pbc="F F F"
C        0.12542541       0.11270554      -0.00029240      -0.01130456       0.98788344      -0.10463210      -0.09214561       1.11788396      -0.00082481
C        1.62503867       0.00847468       0.00156754       0.26950710       0.28288062      -0.06558958      -0.06338950      -0.85342640       0.00215309
H        1.99473018      -0.50605055       0.89354482       0.09244733       0.00905511      -0.10324310       0.00320508       0.00300841       0.00517082
F        0.89788639       2.64149152      -0.00442372      -0.04152292       0.99734814      -0.67539135      -0.23271315      -0.10403772      -0.00076135
Cl      -0.69504884      -1.53494042       0.00509220      -0.20660953       0.99726608       1.22019489       0.38207948      -0.16174994      -0.00050876
H       -0.22306082       0.64592326      -0.87549887      -0.06255914      -0.00287664       0.05716621      -0.00302890      -0.00293595      -0.00472561
H       -0.22431889       0.65275656       0.87018381       0.11211383       0.22298704      -0.04973580      -0.00396382      -0.00350204       0.00469305
H        1.88822962       1.08069343      -0.00059746       0.04313139      -0.06408629      -0.26427353       0.00778691       0.00253743      -0.00033365
H        1.99700981      -0.51031959      -0.88698835       0.07635273      -0.10883098       0.30501701       0.00216950       0.00222225      -0.00486279
9
Properties=species:S:1:pos:R:3:momenta:R:3:forces:R:3 R1=H R2=H R3=CH3 R4=CH3 leaving_group=Cl nucleophile=Cl rxn=sn2 config=rcc label=H_H_CH3_CH3_Cl_Cl_sn2_rcc conformation=0 reactant_id=H_H_CH3_CH3_Cl_none_-_r product_id=H_H_CH3_CH3_none_Cl_sn2_pc mp2_author_energy=-29302.391748605172 mp2_my_energy=0 hash=59123 address=T id=71 energy=-17370.336550035103 pbc="F F F"
C        0.30525504       1.38630126       0.04777706      -0.13653652      -0.06559130       0.28336186      -1.45393963       0.26740841      -0.39445487
C        1.67581240       0.91284955      -0.16029272       0.56083966       1.03536262      -0.73135419       1.13020845      -1.23235281      -0.45383775
H        2.27019964       0.98233269       0.74586662       0.09497185       0.24183578      -0.02951418       0.12414990       0.05012314       0.15446249
F        0.87276787       3.54062128      -1.37592971       0.15064290       0.34467892      -1.02850610       0.02099390      -0.47709484       0.23300712
Cl      -0.53113733       0.11010506       1.09647165      -0.36133555       3.45459791       2.14253922       0.01729872      -0.07550233       0.04134763
H       -0.25371781       1.49887892      -0.86980841       0.01873217      -0.08386144       0.05426443      -0.02108008      -0.20264235      -0.18488434
H        0.19164652       2.32263880       0.54053134       0.03159896       0.01853176      -0.01836514       0.34423770       0.58565096       0.38833187
H        2.11048035       1.51600588      -0.94688483       0.02706034       0.32903162      -0.06337293      -0.03491636       0.44888924      -0.02158724
H        1.70489737      -0.15077251      -0.49203286       0.04208329      -0.03866906      -0.10540158      -0.12695260       0.63552057       0.23761508
9
Properties=species:S:1:pos:R:3:momenta:R:3:forces:R:3 R1=H R2=H R3=CH3 R4=CH3 leaving_group=Cl nucleophile=Cl rxn=sn2 config=rcc label=H_H_CH3_CH3_Cl_Cl_sn2_rcc conformation=0 reactant_id=H_H_CH3_CH3_Cl_none_-_r product_id=H_H_CH3_CH3_none_Cl_sn2_pc mp2_author_energy=-29302.391748605172 mp2_my_energy=0 hash=59123 address=T id=71 energy=-17370.30965252395 pbc="F F F"
C        0.23163520       2.77200841       0.07474333       0.06487788       0.70773171      -0.61790026       0.01424000      -1.13408950       2.03304267
C        1.54765512       2.06474293      -0.12481845       0.03880304       0.39237733       0.51056879       0.04478891       0.79534890      -0.88140798
H        2.23647170       2.33410430       0.67449510      -0.24328860      -0.02863404       0.02692870       0.22486555       0.04725821      -0.09157226
F        0.62614885       3.65958343      -2.35450596      -0.65818882       0.07125439      -0.16699367       0.12207317       0.18478788      -0.70902898
Cl      -0.02933958       2.40540086       1.92538418       1.10882787       3.42457088       0.45030840      -0.50446724       0.26550967      -0.39587689
H       -0.61747665       2.33389921      -0.43208381      -0.03394277      -0.04011851      -0.05896883       0.12458443       0.02614588      -0.14985543
H        0.23937070       3.82842404      -0.06492674       0.19579666       0.10550547       0.05684916       0.15863571       0.46975391      -0.07408166
H        1.90658613       2.40672752      -1.11585587      -0.07804415      -0.02956294       0.09875282      -0.24944917      -0.22644327       0.34488246
H        1.38684497       0.99832570      -0.09540044      -0.01413569       0.05359558       0.14839237       0.06472864      -0.42827167      -0.07610192
9
Properties=species:S:1:pos:R:3:momenta:R:3:forces:R:3 R1=H R2=H R3=CH3 R4=CH3 leaving_group=Cl nucleophile=Cl rxn=sn2 config=rcc label=H_H_CH3_CH3_Cl_Cl_sn2_rcc conformation=0 reactant_id=H_H_CH3_CH3_Cl_none_-_r product_id=H_H_CH3_CH3_none_Cl_sn2_pc mp2_author_energy=-29302.391748605172 mp2_my_energy=0 hash=59123 address=T id=71 energy=-17370.342295941 pbc="F F F"
C        0.44397573       4.14940428       0.23774283       0.13709261       1.06520416      -0.28702542      -0.26645093      -0.52641565      -0.66588861
C        1.37548961       2.96799725       0.14155946      -0.49137857       1.29936216       1.36549015       0.71725149       0.98597836       0.24245892
H        2.42103429       3.36798934       0.08239809      -0.01295763       0.13762841      -0.11814296      -0.67811392      -0.65879933       0.37865813
F        0.04061109       3.52707139      -2.17943335      -0.57577951      -0.56997328      -0.05682175      -0.08724387       0.09559114      -0.10242797
Cl       0.54492850       4.82440892       1.97737878       1.46283550       2.39378960      -0.48811934       0.18637223       0.20218399       0.27084420
H       -0.59367155       3.85856950       0.07293407      -0.17572753       0.23157906      -0.04925659       0.30152602       0.27102321      -0.04274484
H        0.77203249       4.89230019      -0.48398778       0.00945772       0.21153945       0.09980954      -0.40498635       0.10425459       0.25832472
H        1.08451570       2.61980314      -0.84282866       0.10899298      -0.04284079      -0.05573595       0.00551211      -0.38063635      -0.42787563
H        1.21701001       2.24486545       0.93910593      -0.07387810       0.02769927       0.04709618       0.22613322      -0.09317996       0.08865108
9
Properties=species:S:1:pos:R:3:momenta:R:3:forces:R:3 R1=H R2=H R3=CH3 R4=CH3 leaving_group=Cl nucleophile=Cl rxn=sn2 config=rcc label=H_H_CH3_CH3_Cl_Cl_sn2_rcc conformation=0 reactant_id=H_H_CH3_CH3_Cl_none_-_r product_id=H_H_CH3_CH3_none_Cl_sn2_pc mp2_author_energy=-29302.391748605172 mp2_my_energy=0 hash=59123 address=T id=71 energy=-17370.229937185966 pbc="F F F"
C        0.56715240       5.31750135       0.26870284       0.69598809      -0.06764104       0.83476949      -0.49749158       1.50462302       0.18112379
C        1.18891793       4.11083195       0.81818262      -0.01334527       0.31399769       0.32229094       0.43500629      -0.93618913       0.75245591
H        2.26391727       4.06318002       0.77353627       0.19210288      -0.07053212       0.19392038       0.57947198       0.39430145      -0.12750406
F       -0.48378026       3.75016105      -1.20766763      -0.70260879       0.81354773       0.75808636      -0.55614549      -0.58182617      -0.83232145
Cl       1.11470960       6.84847791       1.43953516       0.09351222       2.96454280      -1.90839980       0.11353371      -0.27173522      -0.08700022
H       -0.52078633       5.33086663       0.29995336      -0.00757700       0.17372768       0.00378953       0.45843168      -0.03994513       0.03835234
H        0.92447839       5.60992483      -0.71355741       0.05086689       0.14821834       0.21464522      -0.04118096      -0.07122512       0.22540455
H        0.77440002       3.36865394       0.15280317      -0.00775529       0.17900699       0.02202225      -0.21210507      -0.38532566      -0.49486483
H        0.90061123       3.83015967       1.82586953       0.04865970      -0.17564668      -0.02949907      -0.27952056       0.38732196       0.34435394
9
Properties=species:S:1:pos:R:3:momenta:R:3:forces:R:3 R1=H R2=H R3=CH3 R4=CH3 leaving_group=Cl nucleophile=Cl rxn=sn2 config=rcc label=H_H_CH3_CH3_Cl_Cl_sn2_rcc conformation=0 reactant_id=H_H_CH3_CH3_Cl_none_-_r product_id=H_H_CH3_CH3_none_Cl_sn2_pc mp2_author_energy=-29302.391748605172 mp2_my_energy=0 hash=59123 address=T id=71 energy=-17370.06146815177 pbc="F F F"
C        0.55367867       6.44089050       0.45553821      -0.52844714       1.15558611      -0.20731569       0.24027600       0.74464813       0.68647334
C        1.16464244       5.97377633       1.76361187       0.14489652       0.74878734       0.75808327      -1.35005792      -1.34725382      -0.41361878
H        2.22129735       5.90334888       1.65868119       0.03575079       0.18180444      -0.01282407       1.02048966       0.24125755      -0.03527375
F       -0.80610007       4.61951000       0.18256531       0.05681507       0.09537042       1.15228646       0.03821575      -0.22974826       0.09960225
Cl       1.56037453       8.35306087       0.51043270       1.16958035       1.60342866      -1.17594791       0.15107008       0.41910753      -0.33396099
H       -0.46002388       6.82464734       0.45423273      -0.04532220       0.17822231      -0.00658062       0.32749721      -0.32084257      -0.02240337
H        0.94427560       6.05190650      -0.48288242      -0.31652678       0.19166342      -0.03019649      -0.19280038       0.07382525       0.47727447
H        0.81043685       4.94626841       1.92402983       0.02128722       0.14363507       0.11395236      -0.19026781       0.37572824      -0.03742440
H        0.91595992       6.59054375       2.63494773      -0.16661986       0.24457069      -0.15445215      -0.04442258       0.04327796      -0.42066878
9
Properties=species:S:1:pos:R:3:momenta:R:3:forces:R:3 R1=H R2=H R3=CH3 R4=CH3 leaving_group=Cl nucleophile=Cl rxn=sn2 config=rcc label=H_H_CH3_CH3_Cl_Cl_sn2_rcc conformation=0 reactant_id=H_H_CH3_CH3_Cl_none_-_r product_id=H_H_CH3_CH3_none_Cl_sn2_pc mp2_author_energy=-29302.391748605172 mp2_my_energy=0 hash=59123 address=T id=71 energy=-17370.120320540198 pbc="F F F"
C        0.40264421       7.62371055       0.85850388      -0.32341820       1.01531189       0.07117066       0.28065816      -0.92663678      -0.16336468
C        0.84488214       7.91944171       2.28122865      -0.49895844       0.59050555       0.48053854      -0.92591207      -0.23938662      -1.52614269
H        1.72480521       8.53302721       2.28444948       0.11101073       0.16231809       0.00084739       0.48604084       0.24225450       0.10065851
F       -0.63381109       5.89262638       1.72105213       1.47325085       2.24677894       0.59745369       0.30476867       0.63016746      -0.40577891
Cl       1.90613166       9.43585809      -0.38811860      -0.15279719       0.23086955      -0.70843769      -0.01857743      -0.06221521       0.23355840
H       -0.21058082       8.33747081       0.33752686      -0.08615980      -0.01119240      -0.22051662      -0.12329971      -0.12514461       0.29516861
H        1.03041116       7.02065332       0.19020563      -0.09968912       0.01270542      -0.07591919      -0.28995990       0.32644074       0.73813675
H        0.95748872       6.93317718       2.73342368      -0.11994765       0.08418742       0.09671272       0.01114534       0.23660663       0.24356454
H       -0.01210414       8.45490088       2.69717900       0.05837595       0.09236251       0.18368753       0.27513608      -0.08208612       0.48419948
9
Properties=species:S:1:pos:R:3:momenta:R:3:forces:R:3 R1=H R2=H R3=CH3 R4=CH3 leaving_group=Cl nucleophile=Cl rxn=sn2 config=rcc label=H_H_CH3_CH3_Cl_Cl_sn2_rcc conformation=0 reactant_id=H_H_CH3_CH3_Cl_none_-_r product_id=H_H_CH3_CH3_none_Cl_sn2_pc mp2_author_energy=-29302.391748605172 mp2_my_energy=0 hash=59123 address=T id=71 energy=-17370.280802467307 pbc="F F F"
C        0.56177925       8.84410100       1.34064664      -0.24166662       0.93435394       0.55977628      -0.22616508      -0.65305937       0.31576158
C        0.66595013      10.07201993       2.14489912      -0.08937334       1.93734430      -0.27618918       1.62936244       1.04242419      -0.06274967
H        1.73077322      10.23922488       2.44956093       0.06742138      -0.09032910       0.21656124      -0.74963487      -0.38617492      -0.01303785
F       -0.11921303       7.68952809       2.89377588       0.72870937       1.20699905       0.51895038       0.08415801       0.27381348      -0.32775032
Cl       1.88244728      10.03000484      -0.87347671      -0.22273907       0.60074140      -0.51118259      -0.25483436      -0.17000139       0.38506629
H       -0.28716780       8.58763201       0.74290875       0.11555435      -0.24353283      -0.01808691      -0.34085050       0.31401652      -0.07936282
H        1.36148841       8.15721782       1.30508109      -0.03278192      -0.06003666      -0.05793854       0.64298439      -0.33063116      -0.10454297
H        0.05572942      10.08531429       3.03480313      -0.09513982       0.22213338       0.08462707      -0.35889282      -0.33228256       0.08843543
H        0.47570660      10.94043063       1.52974484       0.14739298       0.10833745      -0.07249613      -0.42612721       0.24189522      -0.20181967
9
Properties=species:S:1:pos:R:3:momenta:R:3:forces:R:3 R1=H R2=H R3=CH3 R4=CH3 leaving_group=Cl nucleophile=Cl rxn=sn2 config=rcc label=H_H_CH3_CH3_Cl_Cl_sn2_rcc conformation=0 reactant_id=H_H_CH3_CH3_Cl_none_-_r product_id=H_H_CH3_CH3_none_Cl_sn2_pc mp2_author_energy=-29302.391748605172 mp2_my_energy=0 hash=59123 address=T id=71 energy=-17370.594626381488 pbc="F F F"
C        0.84237643      10.42289913       1.80396403       0.58847133       1.64098885      -0.57910480      -0.73609747      -1.54969610       0.15902917
C        0.48692392      11.81254377       1.87268414      -0.54431635       0.83103618      -0.18394435       0.01113430       2.04954775       0.50526102
H        1.11017375      12.31147739       2.65077498       0.26716083       0.16864217      -0.05435768      -0.37862873      -0.31126004      -0.53702388
F        0.66281748      10.05163671       3.67844317       0.64822295       1.80395355       1.34108544      -0.14564877       0.10829958      -0.55633516
Cl       1.68404040      10.47049458      -1.05939320      -0.21946758       0.29496366       0.06747471      -0.21980586       0.03708349       0.59468612
H        0.14565216       9.72995079       1.37589382      -0.01331663       0.27964985      -0.01706488      -0.28179595      -0.22200606      -0.00071336
H        1.81594986      10.04338566       1.84034678      -0.09405393       0.21653549      -0.14706082       1.25117877       0.05826305      -0.07526955
H       -0.57486261      11.98410330       2.14985974       0.08586816       0.00378889       0.12979998       0.58077647      -0.30518754      -0.20542801
H        0.68677134      12.25168575       0.89403431      -0.25776815       0.39687133      -0.01465022      -0.08111276       0.13495587       0.11579365
9
Properties=species:S:1:pos:R:3:momenta:R:3:forces:R:3 R1=H R2=H R3=CH3 R4=CH3 leaving_group=Cl nucleophile=Cl rxn=sn2 config=rcc label=H_H_CH3_CH3_Cl_Cl_sn2_rcc conformation=0 reactant_id=H_H_CH3_CH3_Cl_none_-_r product_id=H_H_CH3_CH3_none_Cl_sn2_pc mp2_author_energy=-29302.391748605172 mp2_my_energy=0 hash=59123 address=T id=71 energy=-17370.980818545468 pbc="F F F"
C        1.22758078      12.14211019       2.01738955       0.09096721       1.34377845      -0.15486978      -0.43296990       0.55448171      -0.85047510
C        0.36929737      13.30101472       1.52180783       0.14534729       0.95803556       0.64186765       0.64064938      -0.51565765       0.02526552
H       -0.04757898      13.71352849       2.42754261      -0.16331581      -0.11179908      -0.09328173      -0.72863243       0.13350855       0.24091184
F        1.57306557      12.56446627       3.70586751       0.68924102       1.74222572      -0.23900179      -0.17588078       0.30075788      -0.02979335
Cl       1.34649656      10.91096562      -0.70873271      -0.45898239       0.05331983       0.04600918      -0.02546807      -0.01912118       0.00205719
H        0.76617005      11.21047908       2.20538202      -0.16028192       0.16816711       0.14843655      -0.44567445      -0.64040252       0.11565892
H        2.21922842      12.05206195       1.64686739      -0.02730129       0.22147041       0.15239426       0.45506764       0.00841180      -0.15880118
H       -0.38493827      13.00227830       0.73595698       0.25511387      -0.21315424      -0.07375135       0.98110143       0.27261543       1.01314632
H        1.05257011      14.07324821       1.14990430      -0.00869954       0.26695666      -0.00177023      -0.26819282      -0.09459403      -0.35797015
9
Properties=species:S:1:pos:R:3:momenta:R:3:forces:R:3 R1=H R2=H R3=CH3 R4=CH3 leaving_group=Cl nucleophile=Cl rxn=sn2 config=rcc label=H_H_CH3_CH3_Cl_Cl_sn2_rcc conformation=0 reactant_id=H_H_CH3_CH3_Cl_none_-_r product_id=H_H_CH3_CH3_none_Cl_sn2_pc mp2_author_energy=-29302.391748605172 mp2_my_energy=0 hash=59123 address=T id=71 energy=-17371.37477477648 pbc="F F F"
C        1.47332267      13.74147271       2.03556998      -0.79497410       0.77625845      -0.15970193       0.00394672       1.67725881       0.30787254
C        0.37987567      14.59518968       1.44547818      -0.12996850       0.78619993       0.53000377      -1.61903261       0.10343684       1.03323116
H       -0.26096974      15.04520167       2.25391113      -0.26977245       0.05414772      -0.13138494       0.54210684      -0.53357379      -0.47461890
F        2.34351118      14.75877454       3.07369991       0.90915520       0.85369745      -0.94596459      -1.08799348      -0.98909132      -1.16294861
Cl       1.09087606      11.50618852      -0.06055075       0.11992214       0.72600011       0.98357383      -0.11515788      -0.31433367      -0.22400053
H        1.12345526      12.97687480       2.69168962       0.03206846       0.15673831       0.14805623       0.09319444      -0.42494294       0.34789223
H        2.17163714      13.41870445       1.29815687       0.10425460      -0.01692540      -0.01257140       0.61094439      -0.18203072       0.06164772
H       -0.31745766      14.01438456       0.77304118       0.21012960       0.00570420      -0.02814835       1.18616985       0.40326680       0.67680423
H        0.77488126      15.44992386       0.92854237       0.09792540       0.06768090      -0.05589709       0.38582171       0.26000999      -0.56587983
9
Properties=species:S:1:pos:R:3:momenta:R:3:forces:R:3 R1=H R2=H R3=CH3 R4=CH3 leaving_group=Cl nucleophile=Cl rxn=sn2 config=rcc label=H_H_CH3_CH3_Cl_Cl_sn2_rcc conformation=0 reactant_id=H_H_CH3_CH3_Cl_none_-_r product_id=H_H_CH3_CH3_none_Cl_sn2_pc mp2_author_energy=-29302.391748605172 mp2_my_energy=0 hash=59123 address=T id=71 energy=-17371.4184425625 pbc="F F F"
C        1.73592309      14.95596420       1.78712431      -0.06877395       1.13435571       0.37119426      -0.13198193      -0.12960111       1.58173487
C        0.46204243      15.69916370       1.47279473       0.16992553       0.61613917      -0.43014316       0.42848519      -1.14195876      -1.29192457
H        0.13877588      16.23603165       2.36860598       0.03380558       0.23446196       0.04661039      -0.11309090      -0.00495248      -0.30225237
F        2.69972706      16.20347183       2.30245171       0.35639693       0.43203568      -0.92656895       0.41968753       0.51388864      -0.11017232
Cl       0.93976029      12.12077363       0.65528850       0.37744726       1.46135953       1.26301248      -0.09387342       0.09447480       0.02788539
H        1.81136839      14.37728888       2.72086471      -0.00663619      -0.07413556      -0.10155315      -0.59298329       0.10555756      -0.68774480
H        2.28928868      14.47568065       1.01220185      -0.30283504      -0.16124113      -0.04538027       0.09620651       0.04781961      -0.59389164
H       -0.27500673      14.93966816       1.10116108      -0.04299399       0.18535989       0.28114512       0.45452240       0.81256557       0.50028444
H        0.72180971      16.38607190       0.62419501      -0.21046252      -0.08694468      -0.09842626      -0.46697209      -0.29779383       0.87608100
9
Properties=species:S:1:pos:R:3:momenta:R:3:forces:R:3 R1=H R2=H R3=CH3 R4=CH3 leaving_group=Cl nucleophile=Cl rxn=sn2 config=rcc label=H_H_CH3_CH3_Cl_Cl_sn2_rcc conformation=0 reactant_id=H_H_CH3_CH3_Cl_none_-_r product_id=H_H_CH3_CH3_none_Cl_sn2_pc mp2_author_energy=-29302.391748605172 mp2_my_energy=0 hash=59123 address=T id=71 energy=-17371.429250768866 pbc="F F F"
C        1.95210529      16.09087971       1.33870055      -0.70346414       0.42134414       0.47899481       0.26714726      -1.36438307       0.12998310
C        0.63188064      16.71038266       1.33129152      -0.40990206       1.22967045      -0.04881810      -1.04290047       1.74540426      -0.36724862
H        0.63982419      17.45582880       2.13670611       0.00626979      -0.01913448      -0.08993768      -0.26126111      -0.17147009       0.00732792
F        2.95212179      17.42131830       1.42553905       0.50071140       0.11364204      -1.30174727      -0.24279342      -0.56432768      -0.13448631
Cl       0.86155118      13.08685586       1.59996422       0.48149321       1.10681289       0.92618496       0.04807128       0.28644204      -0.05294132
H        2.15848104      15.45178008       2.18648547      -0.09973922       0.18029255       0.31200860       0.25028609       0.42087089       0.19817104
H        2.17193629      15.52726213       0.44818400       0.04350497       0.20107080       0.06130149       0.51617107       0.21559158      -0.32808984
H       -0.20080709      16.00847538       1.44486177       0.38976267       0.02400603       0.12798725       0.42670851      -0.11870632       0.02245201
H        0.49100108      17.29908897       0.39339448       0.07016184       0.15250799      -0.13794016       0.03857079      -0.44942162       0.52483203
9
Properties=species:S:1:pos:R:3:momenta:R:3:forces:R:3 R1=H R2=H R3=CH3 R4=CH3 leaving_group=Cl nucleophile=Cl rxn=sn2 config=rcc label=H_H_CH3_CH3_Cl_Cl_sn2_rcc conformation=0 reactant_id=H_H_CH3_CH3_Cl_none_-_r product_id=H_H_CH3_CH3_none_Cl_sn2_pc mp2_author_energy=-29302.391748605172 mp2_my_energy=0 hash=59123 address=T id=71 energy=-17371.236914325164 pbc="F F F"
C        1.93899136      16.96032303       0.94437737       0.26036499       0.85141845      -0.15578740       0.71979554       3.38364918       0.05598261
C        0.68758349      17.83278616       1.11041251       0.20531316       1.13138013      -0.30470015       0.59136941      -1.22451041       0.89478418
H        0.63238437      18.27478971       2.14143436      -0.17150653       0.31891253      -0.14146428       0.16598834      -0.34838015      -1.09770205
F        3.05481256      18.18589150       0.51894529       0.08106199       0.54691134      -0.98047537      -1.14974140      -1.69978613       0.38664556
Cl       1.00214612      14.48075806       2.57773029       0.46737297       1.88223294       1.73670517      -0.24673539      -0.18690535       0.06060601
H        2.28211298      16.60265476       1.90474390      -0.14233018      -0.13832140       0.15453073       0.45397811      -0.28516461      -0.49625213
H        1.93587059      16.28694374       0.09175822      -0.19439519      -0.15935231      -0.02820115       0.18874708       0.07642258       0.26773494
H       -0.07737227      17.06479288       1.03237767       0.08114433       0.28571409       0.06849130      -0.69641922       0.37312268      -0.00251357
H        0.64238555      18.60468171       0.34470616      -0.20641322      -0.06331477       0.09872908      -0.02698247      -0.08844780      -0.06928555
9
Properties=species:S:1:pos:R:3:momenta:R:3:forces:R:3 R1=H R2=H R3=CH3 R4=CH3 leaving_group=Cl nucleophile=Cl rxn=sn2 config=rcc label=H_H_CH3_CH3_Cl_Cl_sn2_rcc conformation=0 reactant_id=H_H_CH3_CH3_Cl_none_-_r product_id=H_H_CH3_CH3_none_Cl_sn2_pc mp2_author_energy=-29302.391748605172 mp2_my_energy=0 hash=59123 address=T id=71 energy=-17371.418210321142 pbc="F F F"
C        1.92006416      17.82159770       0.76902189      -0.63043854       1.15248824      -0.22505174      -0.50153955      -2.02502237       2.34729663
C        0.79937484      18.76039607       0.96881915      -0.06168468       0.72582512      -0.37401609      -0.75667663       0.18231126      -0.80146639
H        1.15536430      19.71414572       1.31783992       0.13487803      -0.16508921       0.12401111       0.32806171       0.33636424       0.36055070
F        2.93397617      18.61328070      -0.19199468      -0.30168296      -0.47186828       0.24644137       1.65453409       1.37970964      -1.99382633
Cl       1.23086635      16.03782649       3.32608518       0.82259082       2.06541412       0.63343818      -0.04760153       0.08935054      -0.19598642
H        2.55070229      17.62781276       1.64629425       0.02210913      -0.08229507      -0.06934631      -0.55545890       0.12656600      -0.35991756
H        1.71795033      16.88567816       0.24151705      -0.05980063       0.06106061       0.14138272      -0.09001407       0.33137243       0.08452960
H        0.11434066      18.33712474       1.68918897       0.14071801       0.00146257      -0.11056921      -0.22363834      -0.12365923       0.26250613
H        0.26664383      18.97119549       0.02273851       0.19030832      -0.14345115      -0.06390713       0.19233322      -0.29699251       0.29631365
9
Properties=species:S:1:pos:R:3:momenta:R:3:forces:R:3 R1=H R2=H R3=CH3 R4=CH3 leaving_group=Cl nucleophile=Cl rxn=sn2 config=rcc label=H_H_CH3_CH3_Cl_Cl_sn2_rcc conformation=0 reactant_id=H_H_CH3_CH3_Cl_none_-_r product_id=H_H_CH3_CH3_none_Cl_sn2_pc mp2_author_energy=-29302.391748605172 mp2_my_energy=0 hash=59123 address=T id=71 energy=-17371.335721315725 pbc="F F F"
C        1.85152271      18.45456205       0.78943104      -0.59546604      -0.42311094       0.46831717       0.94119046      -0.32791530      -1.98737567
C        0.91464399      19.60460060       0.81522369       0.41862209       0.74756794      -0.33711790       1.13247613       0.12182618       1.34724245
H        1.43241258      20.51677387       1.14174449      -0.14086090       0.13549751      -0.10661441      -0.23624656      -0.10442469      -0.34240574
F        2.70917873      18.78305081      -0.65609260      -0.11595873       0.06779302       0.33899489      -1.08952350      -0.68625241       2.09464611
Cl       1.49958112      17.40346612       3.82336865       1.03720788       2.48459021       0.13448637      -0.09255942       0.16663893      -0.35400670
H        2.58721733      18.34562587       1.57740135      -0.18012858       0.09015097       0.11213935       0.01160289       0.31587616      -0.33769171
H        1.35567959      17.49516010       0.59390324      -0.04170066       0.08577575      -0.23201715       0.39722267       0.33640085      -0.13130857
H        0.19165542      19.35559117       1.55276606      -0.02585231       0.09506750      -0.06884212      -0.78643471      -0.08610156       0.96617747
H        0.41368834      19.72283452      -0.10696109      -0.07331495       0.17274148       0.02309913      -0.27772797       0.26395186      -1.25527764
9
Properties=species:S:1:pos:R:3:momenta:R:3:forces:R:3 R1=H R2=H R3=CH3 R4=CH3 leaving_group=Cl nucleophile=Cl rxn=sn2 config=rcc label=H_H_CH3_CH3_Cl_Cl_sn2_rcc conformation=0 reactant_id=H_H_CH3_CH3_Cl_none_-_r product_id=H_H_CH3_CH3_none_Cl_sn2_pc mp2_author_energy=-29302.391748605172 mp2_my_energy=0 hash=59123 address=T id=71 energy=-17371.382701115173 pbc="F F F"
C        1.83569691      19.11806191       0.79527717      -0.27800524       0.13651648      -0.36047519      -0.25208697       1.10379322       2.63965049
C        1.13692645      20.45666167       0.72738960       0.11040844      -0.00930429      -0.40054677      -0.43054971      -1.51806169      -0.60804191
H        1.75309730      21.21860423       0.28901514       0.21662185       0.08707748      -0.04683421       0.47770884       0.33118935      -0.16327133
F        2.26887094      18.80076685      -0.72802629      -0.34119169       0.47883214      -0.02931851       0.70775789      -0.31288806      -2.24982316
Cl       1.82122896      18.96493653       4.10911920       0.69870307       2.03059118       0.81518939      -0.05438074       0.08895833      -0.86009751
H        2.76404720      19.15761109       1.36651936      -0.17761665       0.13860455       0.15421290      -0.27523799      -0.36536167      -0.16958940
H        1.19752394      18.26845949       0.98906563      -0.10564876       0.08886301       0.22610085       0.04689234       0.01420960       0.44488042