9
Properties=species:S:1:pos:R:3:momenta:R:3:forces:R:3 R1=H R2=H R3=CH3 R4=CH3 leaving_group=Cl nucleophile=Cl rxn=sn2 config=rcc label=H_H_CH3_CH3_Cl_Cl_sn2_rcc conformation=0 reactant_id=H_H_CH3_CH3_Cl_none_-_r product_id=H_H_CH3_CH3_none_Cl_sn2_pc mp2_author_energy=-29302.391748605172 mp2_my_energy=0 hash=59123 address=T id=71 energy=-17370.412368016237 pbc="F F F"
C        0.12542541       0.11270554      -0.00029240      -1.01209633       0.01414629      -0.76584466      -0.09214561       1.11788396      -0.00082481
C        1.62503867       0.00847468       0.00156754       0.42330809       0.31976207       0.12396536      -0.06338950      -0.85342640       0.00215309
H        1.99473018      -0.50605055       0.89354482       0.03561155       0.05468997      -0.00448062       0.00320508       0.00300841       0.00517082
F        0.89788639       2.64149152      -0.00442372      -0.29861930       0.63955400       0.16301595      -0.23271315      -0.10403772      -0.00076135
Cl      -0.69504884      -1.53494042       0.00509220       0.11665804      -1.04701628      -0.12329688       0.38207948      -0.16174994      -0.00050876
H       -0.22306082       0.64592326      -0.87549887      -0.11205698      -0.10155310      -0.45363626      -0.00302890      -0.00293595      -0.00472561
H       -0.22431889       0.65275656       0.87018381       0.03937070      -0.09998937       0.17702348      -0.00396382      -0.00350204       0.00469305
H        1.88822962       1.08069343      -0.00059746       0.05249212      -0.19124468       0.11870198       0.00778691       0.00253743      -0.00033365
H        1.99700981      -0.51031959      -0.88698835      -0.03287834      -0.16996218      -0.17877007       0.00216950       0.00222225      -0.00486279
9
Properties=species:S:1:pos:R:3:momenta:R:3:forces:R:3 R1=H R2=H R3=CH3 R4=CH3 leaving_group=Cl nucleophile=Cl rxn=sn2 config=rcc label=H_H_CH3_CH3_Cl_Cl_sn2_rcc conformation=0 reactant_id=H_H_CH3_CH3_Cl_none_-_r product_id=H_H_CH3_CH3_none_Cl_sn2_pc mp2_author_energy=-29302.391748605172 mp2_my_energy=0 hash=59123 address=T id=71 energy=-17370.254616272938 pbc="F F F"
C       -0.15639307      -0.10121552      -0.46512340       0.28219016      -0.13559872      -0.28345554       1.05413848      -2.51637455      -0.26636520
C        1.36801375       0.01653845      -0.24374477       0.42817635       0.71132497       0.02295477      -1.54998369       1.12180518       1.01202309
H        1.63189962      -0.41868769       0.73850699      -0.14788745       0.13991893      -0.12542422       0.03846136       0.16592666      -0.47708029
F       -0.25805192       2.46997372      -0.21425096      -0.64617085      -1.46587193      -0.19047425       0.14453943       2.13576994       0.14675674
Cl      -0.55835858      -1.88152978      -0.44238789      -0.63900726      -0.22307898      -0.76871618       0.05694757      -0.96106636       0.02765132
H       -0.44825885       0.19107255      -1.46226751       0.06265829      -0.21391144      -0.17549495      -0.05276859       0.60828953       0.24326000
H       -0.74442876       0.35081564       0.31809155      -0.16634397      -0.05663633       0.31502957       0.21712543       0.39441267      -0.27412696
H        1.50111410       1.11259905      -0.24801103      -0.09311084       0.27383838      -0.14100929      -0.17207068      -0.25162116       0.22272465
H        1.96250843      -0.39364094      -1.02767537      -0.12711810       0.19772847       0.09401420       0.26361069      -0.69714191      -0.63484334
9
Properties=species:S:1:pos:R:3:momenta:R:3:forces:R:3 R1=H R2=H R3=CH3 R4=CH3 leaving_group=Cl nucleophile=Cl rxn=sn2 config=rcc label=H_H_CH3_CH3_Cl_Cl_sn2_rcc conformation=0 reactant_id=H_H_CH3_CH3_Cl_none_-_r product_id=H_H_CH3_CH3_none_Cl_sn2_pc mp2_author_energy=-29302.391748605172 mp2_my_energy=0 hash=59123 address=T id=71 energy=-17370.011498030297 pbc="F F F"
C       -0.66602592      -0.32060739      -0.89012230       0.41872325       0.32530526       0.61020819       0.34465068      -0.08383588      -0.10085749
C        0.68153154       0.18786515      -0.43971900      -0.67985571      -0.35133501      -0.59175288       0.19129073      -0.17900384      -1.23646023
H        0.88140054      -0.22992573       0.52281638      -0.22535500      -0.05275410       0.20355806       0.65908508      -0.55377836       0.57426493
F       -1.29857459       2.21818173      -0.50097478      -0.89269903      -0.56768996      -0.49059519       0.04777240      -0.44224969      -0.13782268
Cl      -0.27989426      -2.30232737      -0.96845880       0.73790125      -0.24256922      -0.98438838      -0.59334807       1.71645372      -0.02381100
H       -0.87084112      -0.00788833      -1.95191510      -0.20408632       0.05689125      -0.23727135      -0.35451730      -0.41937482       1.42174666
H       -1.42709645      -0.13851790      -0.10419952      -0.25457139       0.13474875       0.05591905       0.19173707      -0.27154489      -1.09330102
H        0.65418696       1.27245463      -0.32448486      -0.03480242      -0.17027973       0.10880447      -0.50333453       0.05142043      -0.33511793
H        1.39568348      -0.11074235      -1.23942672      -0.12386192      -0.06103205      -0.18076954       0.01666393       0.18191335       0.93135877
9
Properties=species:S:1:pos:R:3:momenta:R:3:forces:R:3 R1=H R2=H R3=CH3 R4=CH3 leaving_group=Cl nucleophile=Cl rxn=sn2 config=rcc label=H_H_CH3_CH3_Cl_Cl_sn2_rcc conformation=0 reactant_id=H_H_CH3_CH3_Cl_none_-_r product_id=H_H_CH3_CH3_none_Cl_sn2_pc mp2_author_energy=-29302.391748605172 mp2_my_energy=0 hash=59123 address=T id=71 energy=-17370.11831630181 pbc="F F F"
C       -0.85116771      -0.66029996      -1.06401309       0.28802789      -1.06544877      -0.05206673       1.72769487      -0.82028311       0.56335726
C        0.25127795       0.30985032      -0.65473620      -0.08293673      -0.26559738       0.23314696       0.14090065      -0.12826557       0.60734166
H        0.71240161       0.06317736       0.32238984       0.05127531      -0.02442114      -0.34607047      -0.29694221       0.09437409      -0.38363394
F       -2.31464195       1.28573276      -0.92882296      -1.13495022       0.27033510      -0.39521458      -2.07278043       2.85199898       0.27563999
Cl      -0.22442954      -2.28613608      -1.49102620       0.22569153       0.71316129      -0.62183973       0.90604790      -1.08661823      -0.01001789
H       -1.29070830      -0.20814129      -1.92940650      -0.06305804      -0.14735632      -0.18743515      -0.74223418      -0.26986797      -0.09973075
H       -1.52115002      -0.73467304      -0.19796980      -0.09750211      -0.30641058       0.22720794      -0.11074017      -0.07252631      -0.81941919
H       -0.34525675       1.24271851      -0.62788030      -0.26440861       0.10521077      -0.04200627       0.20180645      -0.35944061       0.33117626
H        1.05057225       0.42295044      -1.37524182       0.05973335      -0.03074006      -0.03420608       0.24624711      -0.20937126      -0.46471338
9
Properties=species:S:1:pos:R:3:momenta:R:3:forces:R:3 R1=H R2=H R3=CH3 R4=CH3 leaving_group=Cl nucleophile=Cl rxn=sn2 config=rcc label=H_H_CH3_CH3_Cl_Cl_sn2_rcc conformation=0 reactant_id=H_H_CH3_CH3_Cl_none_-_r product_id=H_H_CH3_CH3_none_Cl_sn2_pc mp2_author_energy=-29302.391748605172 mp2_my_energy=0 hash=59123 address=T id=71 energy=-17370.19190509757 pbc="F F F"
C       -1.33050380      -0.87214030      -1.42135827       0.01271608       0.92973342      -0.51236174       1.79847556      -0.35629728      -0.75269993
C       -0.40954264       0.28032447      -0.99279321       0.39839788       0.97550399       0.12808740       0.73876251      -2.07787304      -0.25364337
H        0.28920947      -0.01778573      -0.16072239      -0.00995281       0.10992185       0.22706120      -0.80530587       0.24506949      -0.76244732
F       -3.07703571       0.70216254      -1.14320717      -0.73296040      -1.32211400      -0.04086685      -0.17571851       0.07542692       0.06787394
Cl       0.00855657      -2.32671114      -1.85385770      -0.00921240      -1.47925668      -0.65271725      -0.53718645       0.65925608       0.29546392
H       -1.79133437      -0.77654977      -2.41474427      -0.00940630       0.00611202      -0.29806960      -0.02422194       0.13449630       1.02934384
H       -1.86261017      -1.35457295      -0.63134570      -0.24856299       0.02556080       0.05015786      -0.59421966       0.01052409       0.03809997
H       -1.09700992       1.04749474      -0.72681380      -0.01881451      -0.10152935      -0.02451003      -0.51220276       0.80594930       0.15189991
H        0.19046720       0.48471771      -1.88073137      -0.30718533       0.17353309       0.01621204       0.11161711       0.50344814       0.18610904
9
Properties=species:S:1:pos:R:3:momenta:R:3:forces:R:3 R1=H R2=H R3=CH3 R4=CH3 leaving_group=Cl nucleophile=Cl rxn=sn2 config=rcc label=H_H_CH3_CH3_Cl_Cl_sn2_rcc conformation=0 reactant_id=H_H_CH3_CH3_Cl_none_-_r product_id=H_H_CH3_CH3_none_Cl_sn2_pc mp2_author_energy=-29302.391748605172 mp2_my_energy=0 hash=59123 address=T id=71 energy=-17369.899756743012 pbc="F F F"
C       -1.67645294      -1.14404440      -1.86243458       0.19955747      -0.95246667       0.13631964       1.80893338       2.17272867      -0.73482767
C       -1.03863104       0.20089050      -1.29476941      -2.71554712      -0.78924773      -0.70563534      -1.20681511      -0.48253057      -1.71977645
H       -0.65733670      -0.01298719      -0.34992814       0.35102831       0.04015345      -0.02040444       1.04869293      -0.32784911       1.83183564
F       -3.71283373      -0.33251426      -1.46161102       0.97996686      -0.55224836      -0.71934717      -1.09671763       0.54535093       0.19213324
Cl       0.05516209      -2.16636369      -2.22920397      -0.28514505       1.05314061      -0.80829563      -0.95291341       0.29321382       0.24452365
H       -2.07583683      -0.93332612      -2.86517197      -0.04717852       0.25618683      -0.29111071       0.21309862      -0.63634129       0.63276280
H       -2.43530338      -1.55530378      -1.19979452       0.08527822      -0.02651070       0.25516844       0.53426726      -0.38148502      -0.16248023
H       -1.77778451       1.00520897      -1.16683395       0.03592608      -0.07873463       0.16951151      -0.15712381      -0.78602269      -0.38490693
H       -0.23260694       0.57675510      -1.94128379      -0.24654326      -0.16237438       0.01787961      -0.19142223      -0.39706473       0.10073595
9
Properties=species:S:1:pos:R:3:momenta:R:3:forces:R:3 R1=H R2=H R3=CH3 R4=CH3 leaving_group=Cl nucleophile=Cl rxn=sn2 config=rcc label=H_H_CH3_CH3_Cl_Cl_sn2_rcc conformation=0 reactant_id=H_H_CH3_CH3_Cl_none_-_r product_id=H_H_CH3_CH3_none_Cl_sn2_pc mp2_author_energy=-29302.391748605172 mp2_my_energy=0 hash=59123 address=T id=71 energy=-17370.272465797432 pbc="F F F"
C       -1.95383444      -1.91491682      -2.31555321      -1.45984193      -0.93902792      -0.46546131      -0.21807238      -1.62691083       1.60198424
C       -2.55327184      -0.59975479      -2.01591530      -0.44606050      -0.95678500      -0.79258582       2.73099651       2.39611048      -1.55873793
H       -2.04648525      -0.12673736      -1.12747088       0.15532824       0.46422701      -0.11557136      -0.86605148      -0.53737595      -0.65131452
F       -3.84610948      -1.18910740      -1.79802462      -0.28839136      -0.70265699       0.23042096      -0.97156022      -0.23508038       0.22846543
Cl      -0.00416465      -1.69832243      -2.61864648       1.25891387       1.29031089      -0.21777443      -0.49190902       0.26712713       0.04604585
H       -2.35750500      -2.40961516      -3.20447142      -0.33843475       0.27087227      -0.30913566       0.12995414       0.04672521       0.39944277
H       -2.05977415      -2.51277108      -1.38210205      -0.07088909      -0.43134191       0.21076945       0.34914355      -0.22978063      -1.21283846
H       -3.57869096      -0.37252702      -2.03602174       0.04196742       0.05643009      -0.13403169      -0.36409508      -0.17068824       0.39885277
H       -2.27208567      -0.02690500      -2.94885166      -0.15094563      -0.01007178       0.03951417      -0.29840602       0.08987322       0.74809986
9
Properties=species:S:1:pos:R:3:momenta:R:3:forces:R:3 R1=H R2=H R3=CH3 R4=CH3 leaving_group=Cl nucleophile=Cl rxn=sn2 config=rcc label=H_H_CH3_CH3_Cl_Cl_sn2_rcc conformation=0 reactant_id=H_H_CH3_CH3_Cl_none_-_r product_id=H_H_CH3_CH3_none_Cl_sn2_pc mp2_author_energy=-29302.391748605172 mp2_my_energy=0 hash=59123 address=T id=71 energy=-17370.303342145115 pbc="F F F"
C       -2.11326725      -2.28361843      -2.41214168       0.97532200       0.10104902      -0.00355006      -0.52794958       0.23960661      -1.93806667
C       -2.96327059      -1.05532297      -2.53030516      -0.00789441      -0.51639287      -0.07360394      -2.25241848      -0.93773958       0.35855817
H       -2.85279362      -0.47742218      -1.61204141      -0.31309007       0.09074554       0.13259595      -0.07840544       0.31103296      -0.16411239
F       -4.06713106      -2.16508448      -2.27760744       0.03667817       0.33696897      -0.57482156      -0.29750145       0.09306799      -0.01436319
Cl      -0.32835923      -1.33491881      -2.93403065      -1.94091358       0.13566811      -0.35257052       0.16012473      -0.41872317       0.27776078
H       -2.31231353      -3.03949666      -3.24514161       0.13502726      -0.03629052      -0.11240916       0.64420732       0.79535776       1.48156354
H       -2.10627899      -2.67481063      -1.38716790       0.10555360      -0.21897111      -0.01981433       0.35316979      -0.11588936      -0.55536485
H       -4.07045546      -1.30762593      -2.65970018       0.09817569      -0.47470895      -0.13398129       1.50978431       0.41541468       0.49213938
H       -2.89666040      -0.42632617      -3.43767596      -0.03830137      -0.11865330       0.00187217       0.48898880      -0.38212789       0.06188523
9
Properties=species:S:1:pos:R:3:momenta:R:3:forces:R:3 R1=H R2=H R3=CH3 R4=CH3 leaving_group=Cl nucleophile=Cl rxn=sn2 config=rcc label=H_H_CH3_CH3_Cl_Cl_sn2_rcc conformation=0 reactant_id=H_H_CH3_CH3_Cl_none_-_r product_id=H_H_CH3_CH3_none_Cl_sn2_pc mp2_author_energy=-29302.391748605172 mp2_my_energy=0 hash=59123 address=T id=71 energy=-17370.47688262131 pbc="F F F"
C       -2.22752073      -2.51051042      -2.87222432      -0.00713790      -0.69882940       0.45473529       1.04729926      -1.44903658       0.31706778
C       -3.34352245      -1.55329199      -2.89022222       0.18039970       0.03054340      -0.49034121      -1.07975837       0.10884200      -0.27729111
H       -3.19914361      -0.84436074      -2.07621249       0.06821399      -0.05219879      -0.15945161      -0.04677839       0.20679904      -0.19394415
F       -4.00391538      -2.76092883      -2.54133974      -0.78149787      -1.21071457      -0.21916153      -0.52335027      -0.30585885      -0.30415508
Cl      -0.68858279      -1.08716366      -3.06875663      -0.04713065       1.22070296      -0.45744142       0.67065177       0.28317208      -0.14783629
H       -1.91699189      -3.20331436      -3.68316573      -0.18314340       0.10158540      -0.06298406      -0.98917705       0.82440077       0.10055332
H       -1.90162818      -3.02711757      -1.95830159      -0.26823792      -0.11528955      -0.08557565      -0.41587029       0.65861745      -0.03497934
H       -4.40795619      -1.85850830      -2.77751900       0.33960923       0.18115281       0.18981419       1.10244920      -0.40932224       0.22075420
H       -3.43738600      -1.11580465      -3.90194072      -0.01504092       0.01621895      -0.02406046       0.23453415       0.08238633       0.31983067
9
Properties=species:S:1:pos:R:3:momenta:R:3:forces:R:3 R1=H R2=H R3=CH3 R4=CH3 leaving_group=Cl nucleophile=Cl rxn=sn2 config=rcc label=H_H_CH3_CH3_Cl_Cl_sn2_rcc conformation=0 reactant_id=H_H_CH3_CH3_Cl_none_-_r product_id=H_H_CH3_CH3_none_Cl_sn2_pc mp2_author_energy=-29302.391748605172 mp2_my_energy=0 hash=59123 address=T id=71 energy=-17370.698348926704 pbc="F F F"
C       -2.38612768      -2.75012123      -2.89094974      -0.12479166       0.26914260      -0.71164048       0.78605893       0.81219030       1.32100374
C       -3.58955917      -2.00849154      -3.18542970      -0.73685030      -0.38926526      -0.06951056      -1.36368894      -0.41910589      -1.24829622
H       -3.83494238      -1.27499331      -2.42160773      -0.08025219       0.02783225      -0.11187373       0.14406162      -0.10435802       0.11191722
F       -3.93770784      -3.37951164      -2.97399392       0.50641554      -0.39634501       0.54642813       0.07447026      -0.38188994       0.23954901
Cl      -1.04912938      -0.83679709      -3.29180806      -0.03774150       0.02656464       0.19282951      -0.06200735      -0.34874390       0.16941031
H       -1.80036374      -3.34969332      -3.59358865       0.17710511       0.16978833       0.05349025      -0.37492515       0.21421167       0.28314749
H       -2.13285434      -2.76219135      -1.81405210       0.03563340      -0.14452592      -0.20633920       0.35874967      -0.54185292      -0.87304521
H       -4.50259178      -2.63488692      -3.24888678      -0.18734395       0.17685971      -0.29792968       0.44957503       0.60730914       0.16094136
H       -3.56272438      -1.60391911      -4.19292469      -0.13206201      -0.16794508      -0.08945741      -0.01229406       0.16223956      -0.16462770
9
Properties=species:S:1:pos:R:3:momenta:R:3:forces:R:3 R1=H R2=H R3=CH3 R4=CH3 leaving_group=Cl nucleophile=Cl rxn=sn2 config=rcc label=H_H_CH3_CH3_Cl_Cl_sn2_rcc conformation=0 reactant_id=H_H_CH3_CH3_Cl_none_-_r product_id=H_H_CH3_CH3_none_Cl_sn2_pc mp2_author_energy=-29302.391748605172 mp2_my_energy=0 hash=59123 address=T id=71 energy=-17370.666193685673 pbc="F F F"
C       -2.50698051      -2.82659660      -3.17331439       0.58243475       0.41794302       0.11674374       0.93940256       0.04159303       0.38077526
C       -3.92120743      -2.45868696      -3.48403610      -0.05820023      -1.12921251       0.41963366       2.13836470      -0.33642726      -0.05876886
H       -4.32150635      -1.94612727      -2.64641247      -0.18081294       0.08301183       0.07071839      -0.47444798       0.67954690       0.76663945
F       -3.61595111      -3.86463835      -3.36986922      -0.63192169      -0.83900645      -0.75792543      -0.68973438      -0.92806479      -0.15961584
Cl      -1.55780696      -0.73582528      -3.46139227      -0.58502721       0.90177756      -0.57676428      -0.19956148       0.74247950       0.22223209
H       -1.70168441      -3.01046543      -3.94550786      -0.13259309       0.11064383      -0.24507437      -1.41498607      -0.29193322       1.31685070
H       -2.31886094      -2.88329966      -2.07746411      -0.19216984      -0.06313598       0.11134018       0.74298058       0.05236345      -1.17370488
H       -4.47694619      -3.34634473      -3.55099751      -0.07145374       0.04162813      -0.30309258      -0.62198488      -0.28508298      -0.30913138
H       -3.94330629      -1.96101440      -4.41940219       0.22453130      -0.29490234      -0.08647855      -0.42003305       0.32552538      -0.98527654
9
Properties=species:S:1:pos:R:3:momenta:R:3:forces:R:3 R1=H R2=H R3=CH3 R4=CH3 leaving_group=Cl nucleophile=Cl rxn=sn2 config=rcc label=H_H_CH3_CH3_Cl_Cl_sn2_rcc conformation=0 reactant_id=H_H_CH3_CH3_Cl_none_-_r product_id=H_H_CH3_CH3_none_Cl_sn2_pc mp2_author_energy=-29302.391748605172 mp2_my_energy=0 hash=59123 address=T id=71 energy=-17370.829977208108 pbc="F F F"
C       -2.54373294      -3.08204589      -3.61550405      -0.28689892      -0.23793533       0.01720605       0.58107527       0.91270210       0.17650382
C       -3.90671091      -3.04910915      -4.01793470      -0.32852533       0.36811318       0.41080093      -2.46610059      -0.21083978      -0.89683012
H       -4.69251202      -2.58660038      -3.32883800      -0.19835203      -0.11139816      -0.10275306       1.44608237      -0.35909406      -0.53740456
F       -3.33344137      -4.39640810      -3.78593022       1.01269852       0.07436271      -0.68168690      -0.49228671       0.18778180      -0.08943291
Cl      -2.39044906      -0.60952162      -3.65964532      -0.77917837      -0.70974989      -0.71577936      -0.02721177      -0.65396856       0.01589213
H       -1.75868496      -3.09726224      -4.33644680       0.09961999       0.20131753       0.32520835       0.30024224      -0.04358564      -0.40705704
H       -2.18215342      -3.03968299      -2.61940528       0.11336743       0.00735758       0.07340961      -0.05435203       0.00896902       0.75785484
H       -4.34555499      -4.08287227      -4.04451261      -0.23007139      -0.14406973      -0.27588244       0.83671773       0.61889984      -0.10813881
H       -3.97206046      -2.69451722      -5.08193741      -0.17022582      -0.01437777       0.03086224      -0.12416652      -0.46086471       1.08861265
9
Properties=species:S:1:pos:R:3:momenta:R:3:forces:R:3 R1=H R2=H R3=CH3 R4=CH3 leaving_group=Cl nucleophile=Cl rxn=sn2 config=rcc label=H_H_CH3_CH3_Cl_Cl_sn2_rcc conformation=0 reactant_id=H_H_CH3_CH3_Cl_none_-_r product_id=H_H_CH3_CH3_none_Cl_sn2_pc mp2_author_energy=-29302.391748605172 mp2_my_energy=0 hash=59123 address=T id=71 energy=-17370.751927578112 pbc="F F F"
C       -2.55273341      -3.05367633      -4.03944532       0.42573528       0.13925459      -0.13768839      -2.15176061      -1.36667004       0.76754948
C       -3.89383191      -3.45925822      -4.49018401       0.60618639      -0.33659050      -0.01687488      -0.00922975      -1.33972773      -0.15388243
H       -4.71238262      -3.23006547      -3.82147718       0.17124081      -0.13675625      -0.07011842      -0.13953522       0.76177805       0.15336036
F       -3.00594072      -4.56405211      -4.06926719      -0.41420772      -0.10038044      -0.58070910       0.19301714       1.02373680      -0.55410065
Cl      -3.13157328      -0.76262562      -3.82068054      -1.79992841      -0.37407384      -0.42711912       0.05789876      -0.08503150      -0.29489215
H       -1.76402568      -2.90972071      -4.74388815       0.12039748      -0.17067301       0.10900039       0.51819253       0.15020774       0.01805916
H       -2.41966895      -2.98881105      -2.97432301      -0.05492804      -0.17389652      -0.40741432       0.76331228       0.26785615      -0.13306999
H       -3.99946394      -4.53426435      -4.43972768      -0.09013877       0.32470345       0.26761452       0.67473114      -0.16946348       0.27179753
H       -4.10589419      -3.42582636      -5.56068751       0.11456685       0.14875886       0.16097536       0.09337373       0.75731401      -0.07482131
9
Properties=species:S:1:pos:R:3:momenta:R:3:forces:R:3 R1=H R2=H R3=CH3 R4=CH3 leaving_group=Cl nucleophile=Cl rxn=sn2 config=rcc label=H_H_CH3_CH3_Cl_Cl_sn2_rcc conformation=0 reactant_id=H_H_CH3_CH3_Cl_none_-_r product_id=H_H_CH3_CH3_none_Cl_sn2_pc mp2_author_energy=-29302.391748605172 mp2_my_energy=0 hash=59123 address=T id=71 energy=-17370.806057986447 pbc="F F F"
C       -2.72408530      -3.11838035      -4.15966368       0.72528305       0.45204249      -0.86251790       1.47484317       1.58882853       0.89624641
C       -3.83910093      -3.79749842      -4.74386584      -0.62688806      -0.99429222      -0.59812806      -0.09845501      -0.44855179      -1.27647593
H       -4.72832743      -3.69233016      -4.11493961      -0.28418827       0.40399128      -0.23687676       0.09318392      -0.24779026       0.09693041
F       -2.62107033      -4.58271975      -4.63062313       0.27116905       0.90620908       0.67162535      -0.93090853      -0.95982119       0.73697449
Cl      -3.91591979      -1.05119238      -4.10518363      -0.94313526      -1.60725667       0.01358655       0.08959382       0.06572875       0.03280584
H       -1.87836985      -2.63498899      -4.70086580      -0.04135643      -0.09622439      -0.09157681      -1.04300911      -0.37406659       0.47653431
H       -2.65247103      -3.05761972      -3.06118936      -0.01047226      -0.00945983       0.11425565       0.25091805      -0.19364540      -0.70918326
H       -3.71820263      -4.87724805      -4.75598633       0.10039282       0.19934614      -0.11840095       0.82726943       0.34100538      -0.02953692
H       -3.95186391      -3.49861614      -5.77404632      -0.13891871       0.04603942      -0.02665971      -0.66343574       0.22831258      -0.22429534
9
Properties=species:S:1:pos:R:3:momenta:R:3:forces:R:3 R1=H R2=H R3=CH3 R4=CH3 leaving_group=Cl nucleophile=Cl rxn=sn2 config=rcc label=H_H_CH3_CH3_Cl_Cl_sn2_rcc conformation=0 reactant_id=H_H_CH3_CH3_Cl_none_-_r product_id=H_H_CH3_CH3_none_Cl_sn2_pc mp2_author_energy=-29302.391748605172 mp2_my_energy=0 hash=59123 address=T id=71 energy=-17370.783315608074 pbc="F F F"
C       -2.88636300      -3.08384903      -4.43204529      -0.38058486      -0.79906110       0.17372910      -1.12158546       0.89750922      -0.15976369
C       -3.75580602      -4.06528012      -5.14420816       0.40813083       0.44960328       0.26775546       0.31679582       0.38194540      -1.52759875
H       -4.51722157      -4.59420403      -4.55598519       0.19584792      -0.27351589       0.02050933       0.26005776       0.40199078       0.28467872
F       -2.34206883      -4.37619552      -5.05564714      -0.58652847       0.15712341      -1.03305350       0.22979184      -0.91753057       0.05234794
Cl      -4.72076965      -1.56229124      -4.40771623      -1.42054367      -0.42550110      -0.68133284      -0.09208925       0.15353146       0.38586848
H       -2.40763710      -2.21570749      -4.91009287       0.32653023       0.23442252       0.04355772      -0.11412494      -0.90070257       0.10679419
H       -2.74979232      -3.14440775      -3.34865396       0.10441865       0.06575246      -0.06934289      -0.14224853       0.07573008      -0.39940218
H       -3.18328489      -4.87436501      -5.48241211       0.30876796      -0.06201895       0.17816361       0.87363362      -0.62930393       0.30482609
H       -4.08889501      -3.78420186      -6.17332819       0.14067905      -0.01332842       0.01897549      -0.21023087       0.53683013       0.95224920
9
Properties=species:S:1:pos:R:3:momenta:R:3:forces:R:3 R1=H R2=H R3=CH3 R4=CH3 leaving_group=Cl nucleophile=Cl rxn=sn2 config=rcc label=H_H_CH3_CH3_Cl_Cl_sn2_rcc conformation=0 reactant_id=H_H_CH3_CH3_Cl_none_-_r product_id=H_H_CH3_CH3_none_Cl_sn2_pc mp2_author_energy=-29302.391748605172 mp2_my_energy=0 hash=59123 address=T id=71 energy=-17370.530876048157 pbc="F F F"
C       -3.26276812      -2.90980873      -5.03305015      -0.75880305       0.18233687       0.03093158       1.84365028      -0.19047863      -1.96458387
C       -3.58976922      -4.13231549      -5.63533260      -0.02631958      -0.40643393       0.23632441      -0.05219129      -3.24531098      -0.63763607
H       -4.17981207      -4.77260868      -4.99480190      -0.15210111      -0.06507680      -0.12085415      -0.85393700      -0.09659094      -0.04709457
F       -2.21526062      -4.09773046      -5.33184597       0.53470048       0.52787272      -0.87058117      -0.71630888       2.65258288       0.69170514
Cl      -5.46261913      -2.30034455      -4.70076784      -0.60468026      -0.81581500      -0.89022352      -0.34062439       0.25068759      -0.15085426
H       -3.00540840      -2.18423143      -5.78907565      -0.37329626      -0.19488868       0.11856506       0.16718636       0.76062393       0.59921590
H       -3.09731804      -2.60904160      -4.02341676      -0.22303110      -0.11457701       0.23129090       0.27334151      -0.43272875       0.46583256
H       -2.70966927      -4.78698998      -5.67946739       0.39222271       0.17314908      -0.19976018      -0.48366287      -0.08586130      -0.51922918
H       -3.88155558      -4.11073059      -6.73453192      -0.05359574      -0.21992827      -0.04951621       0.16254628       0.38707620       1.56264435
9
Properties=species:S:1:pos:R:3:momenta:R:3:forces:R:3 R1=H R2=H R3=CH3 R4=CH3 leaving_group=Cl nucleophile=Cl rxn=sn2 config=rcc label=H_H_CH3_CH3_Cl_Cl_sn2_rcc conformation=0 reactant_id=H_H_CH3_CH3_Cl_none_-_r product_id=H_H_CH3_CH3_none_Cl_sn2_pc mp2_author_energy=-29302.391748605172 mp2_my_energy=0 hash=59123 address=T id=71 energy=-17370.762399279985 pbc="F F F"
C       -3.64724123      -2.86694328      -5.37510172       0.88480081       0.39200557      -0.00065792      -0.85646878      -1.39544351       1.50487711
C       -3.54949191      -4.23348621      -5.99679341      -0.86699773      -0.15976946      -0.85076769      -0.66984966       0.75838248      -1.09849531
H       -4.11843648      -5.07834699      -5.52348898      -0.24389073       0.33521756      -0.14407307       1.23734494       0.84228354       0.53489579
F       -2.29954663      -3.53851152      -5.71961963       0.42711118       0.37521567      -0.02066784       0.17145126      -0.42833731      -0.12868567
Cl      -6.01714716      -3.13212313      -5.10115094      -1.34416973      -1.78146933      -0.03090593       0.19760297       0.18936495      -0.07601602
H       -3.84344131      -1.97080326      -5.93186584      -0.22235069       0.03195494      -0.04450156       0.24256383       0.05739826      -0.43680846
H       -3.59949412      -2.71509649      -4.28747734      -0.32494377       0.26409012      -0.21934444      -0.04561655      -0.13693018      -0.67038781