9
Properties=species:S:1:pos:R:3:momenta:R:3:forces:R:3 R1=H R2=H R3=CH3 R4=CH3 leaving_group=Cl nucleophile=Cl rxn=sn2 config=rcc label=H_H_CH3_CH3_Cl_Cl_sn2_rcc conformation=0 reactant_id=H_H_CH3_CH3_Cl_none_-_r product_id=H_H_CH3_CH3_none_Cl_sn2_pc mp2_author_energy=-29302.391748605172 mp2_my_energy=0 hash=59123 address=T id=71 energy=-17370.412368016237 pbc="F F F"
C        0.12542541       0.11270554      -0.00029240      -0.40501388      -0.30830174       0.30831010      -0.09214561       1.11788396      -0.00082481
C        1.62503867       0.00847468       0.00156754      -0.94458027       0.18183079       0.09935023      -0.06338950      -0.85342640       0.00215309
H        1.99473018      -0.50605055       0.89354482       0.12356228      -0.07086778      -0.20424053       0.00320508       0.00300841       0.00517082
F        0.89788639       2.64149152      -0.00442372      -0.72738287       0.93656217      -0.22214661      -0.23271315      -0.10403772      -0.00076135
Cl      -0.69504884      -1.53494042       0.00509220      -0.46284228      -0.18890378       1.74043762       0.38207948      -0.16174994      -0.00050876
H       -0.22306082       0.64592326      -0.87549887      -0.13394684      -0.11660205      -0.15050364      -0.00302890      -0.00293595      -0.00472561
H       -0.22431889       0.65275656       0.87018381      -0.16489197      -0.37172996      -0.30180140      -0.00396382      -0.00350204       0.00469305
H        1.88822962       1.08069343      -0.00059746      -0.27859072      -0.13466359      -0.12527531       0.00778691       0.00253743      -0.00033365
H        1.99700981      -0.51031959      -0.88698835      -0.16529151       0.09857181       0.16650090       0.00216950       0.00222225      -0.00486279
9
Properties=species:S:1:pos:R:3:momenta:R:3:forces:R:3 R1=H R2=H R3=CH3 R4=CH3 leaving_group=Cl nucleophile=Cl rxn=sn2 config=rcc label=H_H_CH3_CH3_Cl_Cl_sn2_rcc conformation=0 reactant_id=H_H_CH3_CH3_Cl_none_-_r product_id=H_H_CH3_CH3_none_Cl_sn2_pc mp2_author_energy=-29302.391748605172 mp2_my_energy=0 hash=59123 address=T id=71 energy=-17370.286499157737 pbc="F F F"
C       -0.85762087       0.11618348       0.40554607      -0.33030779      -0.27714907       0.37927101       0.56609778      -0.30137252       1.30224719
C        0.50075490       0.07414813      -0.22869529      -0.43308091       0.46803824      -0.13501767      -0.32134026      -0.12198746       0.01933841
H        1.25987628      -0.10696773       0.51755377       0.05080316       0.24859427      -0.07483417       0.40045260      -0.12981284       0.18416840
F       -0.98461756       2.61397025      -0.39683540      -1.08093587      -0.65406609      -0.09311143       0.15527306       0.26357237      -0.12454124
Cl      -1.17822863      -1.53091014       1.14619008      -1.06095412       0.03473354       1.49486686       0.08961296      -0.15734206       0.36638539
H       -1.62416006       0.25356908      -0.27580025       0.22295877      -0.04577863      -0.09341927      -1.28568894       0.28544384      -1.52128317
H       -0.97526477       0.97135956       1.09875208      -0.01632820       0.08657627      -0.01465183       0.36446194      -0.87794556      -0.16402225
H        0.51599036       1.08875633      -0.55988060       0.01457682       0.20042046      -0.18290274       0.36398256       0.98631335      -0.49431042
H        0.62915280      -0.60860507      -1.08353897      -0.18395609      -0.03827467      -0.11135996      -0.33285171       0.05313089       0.43201769
9
Properties=species:S:1:pos:R:3:momenta:R:3:forces:R:3 R1=H R2=H R3=CH3 R4=CH3 leaving_group=Cl nucleophile=Cl rxn=sn2 config=rcc label=H_H_CH3_CH3_Cl_Cl_sn2_rcc conformation=0 reactant_id=H_H_CH3_CH3_Cl_none_-_r product_id=H_H_CH3_CH3_none_Cl_sn2_pc mp2_author_energy=-29302.391748605172 mp2_my_energy=0 hash=59123 address=T id=71 energy=-17370.27421687843 pbc="F F F"
C       -1.84366177       0.14116660       0.82154097      -0.87875703       0.52798851      -0.00140835      -1.75093592      -1.41524954      -0.66024123
C       -0.78002122       0.03757437      -0.19144902      -0.39736613      -0.26864659      -0.06829981       0.83185421       0.86069735      -1.18701717
H        0.23325734       0.18236891       0.26912755      -0.10989269      -0.09092441      -0.06098281      -0.80302352      -0.10585314      -0.48840397
F       -2.58919653       2.20323749      -0.66408966      -1.42504571      -1.07463473       0.51583826       0.17914227      -0.46299035       0.35575651
Cl      -1.46812134      -1.27300174       1.98310277      -0.74878914       1.10225582       0.88059930       0.01879648       0.33740373       0.34112052
H       -2.85995128      -0.12155394       0.45420987       0.21945540      -0.28120623       0.14357758       0.98040637       0.61351026       0.04559278
H       -1.87389763       1.06541062       1.30758394      -0.14770944       0.33528123       0.12248571      -0.07730587       1.19301613       0.93198577
H       -1.02814039       0.84126214      -0.96280795       0.07878828      -0.14474159       0.04015970       0.23700103      -0.80437370       1.05072343
H       -0.85792010      -0.95654819      -0.61489419      -0.06823456      -0.07686464      -0.12916517       0.38406495      -0.21616075      -0.38951663
9
Properties=species:S:1:pos:R:3:momenta:R:3:forces:R:3 R1=H R2=H R3=CH3 R4=CH3 leaving_group=Cl nucleophile=Cl rxn=sn2 config=rcc label=H_H_CH3_CH3_Cl_Cl_sn2_rcc conformation=0 reactant_id=H_H_CH3_CH3_Cl_none_-_r product_id=H_H_CH3_CH3_none_Cl_sn2_pc mp2_author_energy=-29302.391748605172 mp2_my_energy=0 hash=59123 address=T id=71 energy=-17370.239783751877 pbc="F F F"
C       -2.89720195       0.14320055       1.22308852      -0.59567220       0.59784819      -0.14021885      -0.12038550      -3.55637505      -1.05050281
C       -2.15857612      -0.28345329      -0.05482500      -0.81956695      -0.19144360       1.16689426       0.78236252       0.34275965       1.58318448
H       -1.10087376       0.01232061      -0.10762535      -0.02994408       0.12840230       0.07037810      -0.33206979       0.15925273       0.13757884
F       -4.41214046       1.23802073      -0.48853810      -1.53445635      -0.86140516      -0.21546832      -0.22145982       0.13857048      -0.07677020
Cl      -1.91403171      -0.58474780       2.68342775      -0.41479048       0.53670468       0.43085351       0.00409397       0.06991180      -0.21604085
H       -3.84262624      -0.44250222       1.18380129      -0.03387982      -0.23227400       0.24516442       0.60903062       0.99177582       0.40136299
H       -3.02603579       1.14206972       1.43802117       0.02985426       0.06826223      -0.05227128      -0.23350739       1.95719133       0.04311063
H       -2.76460249       0.14286068      -0.81871121      -0.18164980      -0.06708820      -0.18752510      -0.53147956       0.58197064      -0.74140263
H       -2.20240057      -1.35424063      -0.09087193      -0.13133016       0.05141820       0.22203425       0.04341494      -0.68505740      -0.08052044
9
Properties=species:S:1:pos:R:3:momenta:R:3:forces:R:3 R1=H R2=H R3=CH3 R4=CH3 leaving_group=Cl nucleophile=Cl rxn=sn2 config=rcc label=H_H_CH3_CH3_Cl_Cl_sn2_rcc conformation=0 reactant_id=H_H_CH3_CH3_Cl_none_-_r product_id=H_H_CH3_CH3_none_Cl_sn2_pc mp2_author_energy=-29302.391748605172 mp2_my_energy=0 hash=59123 address=T id=71 energy=-17370.24240599666 pbc="F F F"
C       -3.92459386       0.09856034       1.51956275      -0.30790849       0.73969533      -0.03290454       1.03921743       0.10098997       0.50739384
C       -3.34541244      -0.78975971       0.45440670      -0.43035439      -0.71943365       0.14907341       0.38272371      -0.23570787       1.16897445
H       -2.47619794      -0.38692390      -0.06222357      -0.05645297      -0.12738867      -0.06384643       0.06621346       0.20248509       0.12950203
F       -5.96551306       0.12226305       0.19636879      -1.30834872      -0.78391942       0.72731541      -0.24241665       0.01617577      -0.29101278
Cl      -2.58614807       0.26879474       2.97919802      -1.31159965       1.21346678       0.40619753       0.38524628       0.11695621      -0.50569984
H       -4.66578532      -0.32966171       2.14090742      -0.03772857      -0.33332729       0.19436813      -0.90588454      -0.30925451      -0.25432266
H       -4.16450830       1.08586299       1.17414623      -0.00458951      -0.14469142      -0.10156237      -0.07032523       0.21147712       0.15211894
H       -4.20479314      -0.82351855      -0.18315259       0.14500167       0.10203820       0.26343428      -0.64189718      -0.22506275      -0.67622239
H       -3.10174663      -1.77232155       0.87918954      -0.04135207       0.08104923      -0.15080807      -0.01287729       0.12194097      -0.23073158
9
Properties=species:S:1:pos:R:3:momenta:R:3:forces:R:3 R1=H R2=H R3=CH3 R4=CH3 leaving_group=Cl nucleophile=Cl rxn=sn2 config=rcc label=H_H_CH3_CH3_Cl_Cl_sn2_rcc conformation=0 reactant_id=H_H_CH3_CH3_Cl_none_-_r product_id=H_H_CH3_CH3_none_Cl_sn2_pc mp2_author_energy=-29302.391748605172 mp2_my_energy=0 hash=59123 address=T id=71 energy=-17370.111645789908 pbc="F F F"
C       -5.20176615       0.07092507       2.05568986       0.07199817      -0.06344773       0.28417272       0.52627496      -0.74375410      -1.32082525
C       -4.44756563      -1.11749802       1.49036952      -0.47062888      -0.28761046       0.09008502      -1.00751058      -0.96067963      -0.57812100
H       -3.74139111      -0.79146601       0.72683879       0.00391822      -0.06485039       0.04646155       0.16570142       0.06474489       0.08493503
F       -7.12278790      -1.04825339       1.25217635      -0.99333186      -0.62368052       0.68573249       0.50776770       0.51086855       0.31309263
Cl      -3.58086655       1.07750891       2.83551231      -1.99544330       1.19937795      -0.34176522      -0.32292635       0.31656310       0.17082365
H       -5.87816929      -0.13652978       2.82636300       0.11884406      -0.10424164       0.40368926      -0.52194858      -0.27611931       1.12335152
H       -5.66239248       0.76173050       1.34980808       0.01282802      -0.07971855      -0.06493932       0.51610290      -0.29786449       0.05722099
H       -5.28671654      -1.68685482       0.99846156       0.03443013       0.04181853       0.24627012       0.77047804       0.41928955       0.55982520
H       -3.90871969      -1.77279935       2.22804939      -0.19254948       0.01030589       0.06504448      -0.63393951       0.96695144      -0.41030277
9
Properties=species:S:1:pos:R:3:momenta:R:3:forces:R:3 R1=H R2=H R3=CH3 R4=CH3 leaving_group=Cl nucleophile=Cl rxn=sn2 config=rcc label=H_H_CH3_CH3_Cl_Cl_sn2_rcc conformation=0 reactant_id=H_H_CH3_CH3_Cl_none_-_r product_id=H_H_CH3_CH3_none_Cl_sn2_pc mp2_author_energy=-29302.391748605172 mp2_my_energy=0 hash=59123 address=T id=71 energy=-17370.089295614023 pbc="F F F"
C       -6.19629585      -0.17371624       2.49891212      -0.26074858      -0.58435400       0.31599290      -0.61462507       0.31339388      -1.12272944
C       -5.17604896      -1.24192848       2.47204047      -0.25364821       0.61472355       0.46211758       0.29655420      -0.91201211       1.52410543
H       -4.58431139      -1.19283981       1.56779776      -0.01162667      -0.00645623       0.11642884       0.20770959      -0.03733074      -0.21422419
F       -7.84069716      -1.68861401       2.51429020      -0.78219614      -0.45435165       0.63233697       0.07081133      -0.02233305      -0.00429489
Cl      -4.88705141       1.58493643       2.54073129      -1.49005735       0.19623777      -0.43350265       0.27890908       0.12998909      -0.10145631
H       -6.69658236       0.10902864       3.37125454       0.35214305       0.00910779      -0.05203613      -0.39170299      -0.09589329       1.10629171
H       -6.74731018       0.10173261       1.61383210      -0.15021342      -0.09055795       0.11022594       0.28078997      -0.23133184      -0.01680982
H       -5.71255311      -2.22334048       2.56480396      -0.02700884       0.05715645      -0.05500423       0.32477736       1.04129792      -0.24067363
H       -4.50439490      -1.11235019       3.36633942      -0.11069364       0.28090676       0.03777327      -0.45322348      -0.18577987      -0.93020886
9
Properties=species:S:1:pos:R:3:momenta:R:3:forces:R:3 R1=H R2=H R3=CH3 R4=CH3 leaving_group=Cl nucleophile=Cl rxn=sn2 config=rcc label=H_H_CH3_CH3_Cl_Cl_sn2_rcc conformation=0 reactant_id=H_H_CH3_CH3_Cl_none_-_r product_id=H_H_CH3_CH3_none_Cl_sn2_pc mp2_author_energy=-29302.391748605172 mp2_my_energy=0 hash=59123 address=T id=71 energy=-17370.069763443076 pbc="F F F"
C       -7.14030183      -0.41608265       3.09319537       0.17317637      -0.33703699       0.27907556      -0.25814044       0.89177281       0.23134561
C       -5.80145933      -1.08678098       3.41347898      -1.23085982      -0.14093260       0.37147742      -1.24614921       0.57170726       0.51913144
H       -5.06568486      -1.08729212       2.62177542      -0.22546589       0.12243524       0.16163868      -0.02108652       0.51204674      -0.49250347
F       -8.31918933      -2.10324272       3.56348964       0.25226660      -0.28723579       0.95762084       0.06590513      -0.19350292       0.09924643
Cl      -6.12698733       1.83506272       2.22781699      -2.02845602       0.39728702      -0.76864191       0.23454030       0.05253539       0.08863490
H       -7.61432808       0.32931944       3.77228343      -0.16611183      -0.02543934       0.19933524       0.93384493      -1.11918437      -0.35986214
H       -7.49032647      -0.24528357       2.09902894      -0.07011139       0.13551257       0.11644085       0.24957461      -0.58205224      -0.24910735
H       -6.00400447      -2.14972553       3.63782427      -0.13840089       0.10586113       0.00232132      -0.17055545       0.56385226       0.34887595
H       -5.41952344      -0.49520518       4.26566334      -0.09908042       0.05851103       0.14655965       0.21206664      -0.69717494      -0.18576138
9
Properties=species:S:1:pos:R:3:momenta:R:3:forces:R:3 R1=H R2=H R3=CH3 R4=CH3 leaving_group=Cl nucleophile=Cl rxn=sn2 config=rcc label=H_H_CH3_CH3_Cl_Cl_sn2_rcc conformation=0 reactant_id=H_H_CH3_CH3_Cl_none_-_r product_id=H_H_CH3_CH3_none_Cl_sn2_pc mp2_author_energy=-29302.391748605172 mp2_my_energy=0 hash=59123 address=T id=71 energy=-17370.232835103616 pbc="F F F"
C       -8.09647660      -0.46677649       3.72208698      -0.27273161       0.28994063       0.44458989       1.36379730      -3.46739403       0.40686629
C       -6.65083166      -0.40534841       4.24127446      -0.79119854       0.65727114       0.37272989       0.46877819      -0.50037602      -0.39136980
H       -6.45921268       0.42793033       4.91878727      -0.01740743      -0.04660973       0.15373539      -0.34340499       0.26070296      -0.24284204
F       -8.60757968      -2.18865883       4.74358826      -0.08711043      -0.59259073       1.37233370       0.56681451       1.95905866      -1.01739822
Cl      -7.65439256       1.63989259       2.00434856      -2.06263983      -0.21296354      -0.46043773      -0.03447552      -0.13794982       0.14311366
H       -8.83001003       0.23275299       3.94543440      -0.24801889      -0.12642328       0.02840704      -0.65296392       1.09537136       0.62117245
H       -8.27915254      -1.02060050       2.79740284      -0.05515166      -0.02271954      -0.06130541       0.30188145       0.31781582       0.47169732
H       -5.92652087      -0.33078898       3.38697778      -0.12938543      -0.01608657      -0.04836096      -0.82495732       0.08724207       0.68255414
H       -6.34539014      -1.30331978       4.83722180      -0.19832806       0.10184029      -0.19939467      -0.84546970       0.38552900      -0.67379382
9
Properties=species:S:1:pos:R:3:momenta:R:3:forces:R:3 R1=H R2=H R3=CH3 R4=CH3 leaving_group=Cl nucleophile=Cl rxn=sn2 config=rcc label=H_H_CH3_CH3_Cl_Cl_sn2_rcc conformation=0 reactant_id=H_H_CH3_CH3_Cl_none_-_r product_id=H_H_CH3_CH3_none_Cl_sn2_pc mp2_author_energy=-29302.391748605172 mp2_my_energy=0 hash=59123 address=T id=71 energy=-17370.578387667538 pbc="F F F"
C       -8.81780574      -0.52828632       4.26145293      -1.43911974       0.01670801      -0.67086191       1.26548761       1.27957199       1.61448185
C       -7.64439780       0.26632976       4.87866883      -0.46309848       0.45589038       0.60903453      -0.00080589      -0.18255445      -1.76169247
H       -7.84800764       0.47627377       5.92847386      -0.03081192       0.34125086      -0.02706682      -0.28428755       0.32368722      -0.16092621
F       -8.69410310      -1.91002458       5.54759924       0.48565817       0.31109595       0.77495550      -0.18074320       0.27226052      -0.09507429
Cl      -9.01701864       1.24712262       1.96986163      -2.06592826      -0.70586447       0.16974996       0.01902744      -0.20565127       0.31118583
H       -9.80992997      -0.17984228       4.37641285       0.00111279       0.01881712       0.26244868      -0.56981405       0.38146768       0.43846378
H       -8.72715799      -1.19468537       3.47837042      -0.05438802      -0.21848365       0.00859610       0.73003729      -0.89849984      -1.28837097
H       -7.41868381       1.16621657       4.23007597      -0.04511334      -0.01694536       0.21460964      -0.51213413      -0.98255868       1.14170681
H       -6.73438299      -0.35872979       4.89568046       0.04435911      -0.17322548       0.13858707      -0.46676753       0.01227684      -0.19977432
9
Properties=species:S:1:pos:R:3:momenta:R:3:forces:R:3 R1=H R2=H R3=CH3 R4=CH3 leaving_group=Cl nucleophile=Cl rxn=sn2 config=rcc label=H_H_CH3_CH3_Cl_Cl_sn2_rcc conformation=0 reactant_id=H_H_CH3_CH3_Cl_none_-_r product_id=H_H_CH3_CH3_none_Cl_sn2_pc mp2_author_energy=-29302.391748605172 mp2_my_energy=0 hash=59123 address=T id=71 energy=-17370.78721900257 pbc="F F F"
C       -9.57186714      -0.44313642       4.87876531      -0.42094410      -0.49425642       0.86395434      -0.74427741       3.27509541       2.05114068
C       -9.03590093       0.94508271       5.27026554      -0.89025283       0.13527516       0.39580359       0.10743849      -2.17029798       1.14726189
H       -9.11114129       0.99180229       6.38528187      -0.00789719       0.23233016       0.08703885       0.08896798      -0.15293086      -0.80760160
F       -8.81886689      -1.33605668       6.19452165       0.27842003       1.09747506      -0.02407576       0.37181192      -0.54688752       0.25115073
Cl     -10.48532740       0.63237320       2.22189260      -1.99235487      -0.72828861       0.30866110      -0.01665502      -0.02314501       0.22219846
H      -10.56994593      -0.51843693       5.21296349      -0.24667442       0.13317493      -0.16162225      -1.02149907      -0.46193615       0.17373138
H       -9.45098741      -0.87397999       3.96296966      -0.17470218      -0.28037662       0.05073908       1.12362514      -1.14085153      -1.97171457
H       -9.61200085       1.71452621       4.83474509      -0.02682742       0.01209155       0.05729141      -0.52075594       0.83275875      -0.80950072
H       -7.99619882       0.99788512       5.01485810      -0.22253222      -0.07706343      -0.04113176       0.61134391       0.38819490      -0.25666626
9
Properties=species:S:1:pos:R:3:momenta:R:3:forces:R:3 R1=H R2=H R3=CH3 R4=CH3 leaving_group=Cl nucleophile=Cl rxn=sn2 config=rcc label=H_H_CH3_CH3_Cl_Cl_sn2_rcc conformation=0 reactant_id=H_H_CH3_CH3_Cl_none_-_r product_id=H_H_CH3_CH3_none_Cl_sn2_pc mp2_author_energy=-29302.391748605172 mp2_my_energy=0 hash=59123 address=T id=71 energy=-17370.852339238038 pbc="F F F"
C      -10.30846123      -0.19705933       5.27536036      -0.44325973       0.53316532       1.04362467      -0.82263017       1.41385463       2.00118770
C      -10.47520491       1.30733416       5.59557229      -1.24487412      -0.11834149       0.19178673      -0.40826832      -0.25304650      -2.92368281
H      -11.01058609       1.39831882       6.50886398       0.32452874      -0.08795465       0.15989125      -0.26108661      -0.05883169       0.90826202
F       -9.08459023      -0.46545867       6.55560809      -0.41621937       1.35816480      -0.05131452      -0.21829033      -0.02270069      -0.39236816
Cl     -11.85829333      -0.05781161       2.73440952      -1.99380720      -0.98547968       0.81262347       0.03678788       0.00710669       0.18971686
H      -11.07703462      -0.75152193       5.79872906      -0.25676451      -0.29064726       0.00437430       0.14645642      -0.48338030      -0.60001907
H       -9.82773073      -0.64306438       4.43555849       0.06999398      -0.11428024      -0.27433528       0.18930400       0.36917706      -0.25286615
H      -11.08182458       1.87053450       4.80788860      -0.08082295      -0.03081767      -0.06629500       1.01682231      -1.12885233       0.96962098
H       -9.49330690       1.74960500       5.68142735       0.04339233      -0.23103673      -0.16169099       0.32090483       0.15667313       0.10014862
9
Properties=species:S:1:pos:R:3:momenta:R:3:forces:R:3 R1=H R2=H R3=CH3 R4=CH3 leaving_group=Cl nucleophile=Cl rxn=sn2 config=rcc label=H_H_CH3_CH3_Cl_Cl_sn2_rcc conformation=0 reactant_id=H_H_CH3_CH3_Cl_none_-_r product_id=H_H_CH3_CH3_none_Cl_sn2_pc mp2_author_energy=-29302.391748605172 mp2_my_energy=0 hash=59123 address=T id=71 energy=-17370.961286638652 pbc="F F F"
C      -11.05189085       0.19761180       5.46924266      -0.60182039       0.39545973       0.63762890       1.16378747      -0.25370371       0.90395765
C      -11.86185727       1.39142017       5.88398316       0.04425973      -0.66657666      -0.32984749      -1.49813910      -0.68032196      -1.88348261
H      -12.27198283       1.24787496       6.87080562       0.16461004      -0.03006091       0.09198882      -0.23282151      -0.05494519       0.34473159
F       -9.67274892       0.49879869       6.58746685      -0.59870456       0.95334014      -0.16052428      -0.19926610       0.15690901      -0.24084572
Cl     -13.00193436      -0.74373137       3.48734069      -1.62733319      -0.84844654       0.45712289      -0.06492947       0.02101617      -0.02574186
H      -11.15333151      -0.77614905       5.96919639      -0.03430211       0.12547010       0.01691247      -0.41661690       0.63889170      -0.74462610
H      -10.44508294       0.25744569       4.55890664       0.11774260      -0.00435101       0.19363283      -0.53325528      -0.12136398       0.36111023
H      -12.70512437       1.57511888       5.13074318       0.02570344       0.10141244       0.28930284       1.23544987      -0.36582316       1.24949682
H      -11.20914199       2.23582612       5.88920934      -0.24907993      -0.00363090      -0.05156424       0.54579102       0.65934113       0.03540000
9
Properties=species:S:1:pos:R:3:momenta:R:3:forces:R:3 R1=H R2=H R3=CH3 R4=CH3 leaving_group=Cl nucleophile=Cl rxn=sn2 config=rcc label=H_H_CH3_CH3_Cl_Cl_sn2_rcc conformation=0 reactant_id=H_H_CH3_CH3_Cl_none_-_r product_id=H_H_CH3_CH3_none_Cl_sn2_pc mp2_author_energy=-29302.391748605172 mp2_my_energy=0 hash=59123 address=T id=71 energy=-17371.006315577033 pbc="F F F"
C      -12.05472818       0.63463726       5.55051379      -0.94086496      -0.21310357      -0.92082634       1.52589241       0.95241628       0.50722780
C      -13.12895552       1.34666376       6.23604154      -1.52205798       0.04046692       0.48026459      -0.97905044       1.30945524      -0.97745357
H      -13.13991466       1.07208671       7.25386578       0.18360504       0.07740601      -0.05348042      -0.24301902      -0.30993269       1.33905534
F      -10.56674681       1.33403078       6.29886221      -0.62014772       1.10221834       0.12249317      -1.22521110      -0.30632648      -0.46208550
Cl     -13.88098684      -1.32371953       4.41770894      -1.73582293      -1.24337539       1.43939774      -0.19173700      -0.16031964      -0.17092863
H      -11.86628836      -0.35941321       5.82585545       0.12235173       0.17513994       0.06533538       0.25000034      -1.07322274       0.06841874
H      -11.83154376       0.92198131       4.55505585       0.20296221       0.13160873       0.30544465       0.22266925      -0.03814842      -0.72824497
H      -14.09514563       1.11132685       5.74951685       0.13796732      -0.08535742       0.30051739       0.54089479      -0.05865647       0.40119799
H      -12.98253913       2.43878392       6.17355446       0.31275206       0.04663284      -0.13797614       0.09956077      -0.31526508       0.02281279
9
Properties=species:S:1:pos:R:3:momenta:R:3:forces:R:3 R1=H R2=H R3=CH3 R4=CH3 leaving_group=Cl nucleophile=Cl rxn=sn2 config=rcc label=H_H_CH3_CH3_Cl_Cl_sn2_rcc conformation=0 reactant_id=H_H_CH3_CH3_Cl_none_-_r product_id=H_H_CH3_CH3_none_Cl_sn2_pc mp2_author_energy=-29302.391748605172 mp2_my_energy=0 hash=59123 address=T id=71 energy=-17370.845130863498 pbc="F F F"
C      -13.12621678       0.89952074       5.55325839      -0.73398296       0.06037020      -0.60087720      -0.85537938       1.29427454      -0.99852305
C      -14.06293999       1.28053100       6.58213238       0.10436213       0.22907936      -0.04614378       0.05579605       1.53289885       0.95353966
H      -13.54923852       1.38508637       7.53750622      -0.25138837       0.12226947       0.05461169       0.16319331      -0.22438111       0.05415815
F      -11.81048862       2.01303971       5.92565358      -1.01560982       0.73356162       0.04668419       0.06512348       0.20302603      -0.15514278
Cl     -14.56891453      -1.73844086       5.36914541      -1.06425488      -0.98202868       1.96853766       0.05896317       0.12903428      -0.14134664
H      -12.72057390      -0.00732141       5.68690641      -0.15416941      -0.27055501      -0.13183463       1.81308365      -2.88241295       0.42271406
H      -13.39480057       1.06617261       4.52396783      -0.10470780       0.31549127      -0.16735874       0.10528335       0.34637894      -0.22585241
H      -14.80517981       0.53023972       6.61477766      -0.40713070       0.08831052       0.12655157      -1.02509071      -0.71544576       0.20183680
H      -14.47440539       2.25743243       6.37565327      -0.13528738      -0.26565820       0.31071914      -0.38097292       0.31662720      -0.11138379
9
Properties=species:S:1:pos:R:3:momenta:R:3:forces:R:3 R1=H R2=H R3=CH3 R4=CH3 leaving_group=Cl nucleophile=Cl rxn=sn2 config=rcc label=H_H_CH3_CH3_Cl_Cl_sn2_rcc conformation=0 reactant_id=H_H_CH3_CH3_Cl_none_-_r product_id=H_H_CH3_CH3_none_Cl_sn2_pc mp2_author_energy=-29302.391748605172 mp2_my_energy=0 hash=59123 address=T id=71 energy=-17370.903666984268 pbc="F F F"
C      -14.31598491       0.89708760       5.72499466      -0.35080993       0.32394279      -0.40479322      -0.55331132      -2.20161161      -0.58308447
C      -14.97349041       1.35304312       6.99292789      -0.82052238       0.68394330       0.82016170      -0.70017893      -1.38730021      -0.21156652
H      -14.37797132       2.08428864       7.51447523       0.02791112      -0.31022915      -0.04336248       0.53462538       0.08211450       0.15286109
F      -13.43856761       2.36629533       5.39647147      -1.43488032       0.09793900      -0.29855011       0.84579601       1.17033072      -0.39612690
Cl     -15.10684082      -1.93582859       6.34803164      -0.62605049      -0.09199565       1.68693537       0.00241804       0.22011375      -0.10251505
H      -13.53275089       0.08852972       5.79603830      -0.02709574      -0.21931462       0.16106031      -1.04821079       1.39978285      -0.21011469
H      -14.96492338       0.89300484       4.79439411      -0.23660665      -0.11664482      -0.31706099       1.07066837      -0.28022339       1.37992773
H      -15.19390028       0.43589471       7.59033808       0.03259425      -0.46056796      -0.17224336       0.08097233       0.96382295      -0.28700757
H      -15.90486868       1.83170523       6.70043778       0.07725110       0.12045617      -0.03885673      -0.23277909       0.03297044       0.25762639
9
Properties=species:S:1:pos:R:3:momenta:R:3:forces:R:3 R1=H R2=H R3=CH3 R4=CH3 leaving_group=Cl nucleophile=Cl rxn=sn2 config=rcc label=H_H_CH3_CH3_Cl_Cl_sn2_rcc conformation=0 reactant_id=H_H_CH3_CH3_Cl_none_-_r product_id=H_H_CH3_CH3_none_Cl_sn2_pc mp2_author_energy=-29302.391748605172 mp2_my_energy=0 hash=59123 address=T id=71 energy=-17370.82947672988 pbc="F F F"
C      -15.57819185       0.79347565       5.90203766      -0.40458620       0.11335178      -0.10196318       1.81910586      -1.26182533       0.98818955
C      -15.81783914       1.39426197       7.30266150      -0.41930149      -0.52573756       0.08038091      -0.13124620      -0.26705142      -1.26853199
H      -16.68694583       0.99147579       7.80427416       0.18783472       0.15121026      -0.06723632       0.04509029      -0.73377977       0.11864379
F      -15.26825853       2.28370127       4.97524250      -1.12938340      -0.52859350      -0.20660087       0.15370796      -0.04621655       0.24274988
Cl     -15.45813665      -1.85595348       7.26930522      -0.31676882       0.63122291       1.05393731      -0.06679960       0.19995717      -0.15282548
H      -14.61525549       0.17615674       5.81415985      -0.26432705      -0.07924824      -0.05011501      -1.85562249       1.27853564      -0.17684711
H      -16.38775253       0.52374976       5.22946334      -0.14668462       0.17248478       0.24302032       0.14051793      -0.07799804       0.71704546