9
Properties=species:S:1:pos:R:3:momenta:R:3:forces:R:3 R1=H R2=H R3=CH3 R4=CH3 leaving_group=Cl nucleophile=Cl rxn=sn2 config=rcc label=H_H_CH3_CH3_Cl_Cl_sn2_rcc conformation=0 reactant_id=H_H_CH3_CH3_Cl_none_-_r product_id=H_H_CH3_CH3_none_Cl_sn2_pc mp2_author_energy=-29302.391748605172 mp2_my_energy=0 hash=59123 address=T id=71 energy=-17370.412368016237 pbc="F F F"
C        0.12542541       0.11270554      -0.00029240       0.09919107       0.44305374      -0.17079069      -0.09214561       1.11788396      -0.00082481
C        1.62503867       0.00847468       0.00156754       0.27531877       0.17820117       0.16635250      -0.06338950      -0.85342640       0.00215309
H        1.99473018      -0.50605055       0.89354482      -0.01891941      -0.09020396       0.11071243       0.00320508       0.00300841       0.00517082
F        0.89788639       2.64149152      -0.00442372      -0.70063160       0.32353685       0.04890639      -0.23271315      -0.10403772      -0.00076135
Cl      -0.69504884      -1.53494042       0.00509220       1.13885216       0.09855130      -0.27351132       0.38207948      -0.16174994      -0.00050876
H       -0.22306082       0.64592326      -0.87549887      -0.20988655      -0.00796331       0.03881777      -0.00302890      -0.00293595      -0.00472561
H       -0.22431889       0.65275656       0.87018381       0.03165277      -0.01533632      -0.00576313      -0.00396382      -0.00350204       0.00469305
H        1.88822962       1.08069343      -0.00059746      -0.03119519      -0.04528801       0.01141018       0.00778691       0.00253743      -0.00033365
H        1.99700981      -0.51031959      -0.88698835       0.08234933      -0.19907018      -0.29020105       0.00216950       0.00222225      -0.00486279
9
Properties=species:S:1:pos:R:3:momenta:R:3:forces:R:3 R1=H R2=H R3=CH3 R4=CH3 leaving_group=Cl nucleophile=Cl rxn=sn2 config=rcc label=H_H_CH3_CH3_Cl_Cl_sn2_rcc conformation=0 reactant_id=H_H_CH3_CH3_Cl_none_-_r product_id=H_H_CH3_CH3_none_Cl_sn2_pc mp2_author_energy=-29302.391748605172 mp2_my_energy=0 hash=59123 address=T id=71 energy=-17370.266307265807 pbc="F F F"
C        0.55841856       0.52187707      -0.19699089       0.43576942      -0.23380286      -0.30268005       0.05795351       0.29197505       0.34197607
C        1.92238185       1.13495413      -0.40890118       0.16144566       1.68892918      -0.36414524       0.93633433      -1.12420140       0.18381380
H        2.65685368       0.66988029       0.32805143      -0.14957343       0.13682268      -0.02409989      -0.83597709       0.92117536      -0.75346868
F       -0.49916879       2.93121255       0.14363965      -0.94337832      -0.39474325      -0.00155766       0.63177442      -0.75627472      -0.17610677
Cl       0.72788884      -1.33818962      -0.35108049       2.11126899       0.32969951      -0.52249913       0.09732430       0.64983435      -0.20639069
H       -0.12118498       0.93626374      -0.91762328      -0.00765148       0.02403873       0.01990953      -0.51536709      -0.21830593      -0.15309769
H        0.19136623       0.70107087       0.80320989       0.19641426      -0.05410876       0.02115792      -0.10273492       0.14501766      -0.06935961
H        1.72182300       2.21112937      -0.24458613       0.02239288       0.07560328      -0.01850729       0.29174549      -0.47512821      -0.14158211
H        2.32916268       0.87523061      -1.43242398      -0.05636598       0.24766879       0.22574207      -0.56105295       0.56590784       0.97421569
9
Properties=species:S:1:pos:R:3:momenta:R:3:forces:R:3 R1=H R2=H R3=CH3 R4=CH3 leaving_group=Cl nucleophile=Cl rxn=sn2 config=rcc label=H_H_CH3_CH3_Cl_Cl_sn2_rcc conformation=0 reactant_id=H_H_CH3_CH3_Cl_none_-_r product_id=H_H_CH3_CH3_none_Cl_sn2_pc mp2_author_energy=-29302.391748605172 mp2_my_energy=0 hash=59123 address=T id=71 energy=-17370.25153694025 pbc="F F F"
C        0.91668335       0.78137953      -0.39423265      -0.00979679      -0.37799846      -0.07804559       1.94637444      -0.11929657       0.11835071
C        1.24975939       2.21250514      -0.72769515      -0.98727152      -0.06998102      -0.04176491      -2.23301517      -0.88000109      -0.86834745
H        2.00332590       2.56804685      -0.12586238       0.00233102      -0.03590512      -0.10275627       2.02975627       0.78902540       1.47036349
F       -1.31897932       2.06900213       0.06860717      -0.90058616      -0.32750922      -0.03262165      -0.83683573       0.14674727       0.24666124
Cl       2.55489895      -0.16130671      -0.76924801       3.33913757       2.34517421      -0.75333291      -0.87639694       0.20056511       0.06089761
H        0.12171092       0.32861148      -0.95538916       0.01589132      -0.04707278      -0.05130155      -0.11151785      -0.04410490      -0.26616000
H        0.78981786       0.61966678       0.66256574       0.12540328       0.09125442       0.09077446      -0.26662867      -0.00118248       0.12921608
H        0.29315479       2.73096584      -0.50169674       0.07354319       0.06920103      -0.00589684       0.14530905      -0.25948279      -0.16966539
H        1.52545921       2.29686951      -1.75991340       0.20075589       0.26453535      -0.04037955       0.20295461       0.16773005      -0.72131629
9
Properties=species:S:1:pos:R:3:momenta:R:3:forces:R:3 R1=H R2=H R3=CH3 R4=CH3 leaving_group=Cl nucleophile=Cl rxn=sn2 config=rcc label=H_H_CH3_CH3_Cl_Cl_sn2_rcc conformation=0 reactant_id=H_H_CH3_CH3_Cl_none_-_r product_id=H_H_CH3_CH3_none_Cl_sn2_pc mp2_author_energy=-29302.391748605172 mp2_my_energy=0 hash=59123 address=T id=71 energy=-17370.22435546829 pbc="F F F"
C        1.45001656       1.34698363      -0.76889143       0.01287579       0.25924634      -0.77584952       0.68028967       0.09965340      -0.11658290
C        0.81434962       2.69792198      -1.07383977      -0.03343953       0.43552334       0.04182239       0.69970272       0.93230974       1.16589240
H        1.20183341       3.50171257      -0.31768548      -0.12079557      -0.02071365       0.07672420      -0.65587319      -1.41933807      -1.40667423
F       -0.74014514       0.38039888      -0.21970652       2.10531616      -0.86698297      -0.39413831      -0.59292066       0.04314990       0.03292805
Cl       3.36245865       1.50025337      -0.94211225      -0.43260836       1.57354658       0.33719790      -0.18501047       0.45334951      -0.16018003
H        1.19806224       0.52931262      -1.43770658      -0.02560925      -0.08003905       0.05911657      -0.21446741       0.41927633       0.11678922
H        1.29636738       1.03983428       0.25722884       0.09099993       0.14869371       0.02306423      -0.12671431       0.06325143      -0.20652394
H       -0.24949597       2.51713491      -0.88825460      -0.03292891      -0.02610726      -0.06704738       0.16957779      -0.13670518       0.04207629
H        0.94044619       3.08344486      -2.10501936      -0.17827189       0.00133567      -0.05745972       0.22541587      -0.45494706       0.53227513
9
Properties=species:S:1:pos:R:3:momenta:R:3:forces:R:3 R1=H R2=H R3=CH3 R4=CH3 leaving_group=Cl nucleophile=Cl rxn=sn2 config=rcc label=H_H_CH3_CH3_Cl_Cl_sn2_rcc conformation=0 reactant_id=H_H_CH3_CH3_Cl_none_-_r product_id=H_H_CH3_CH3_none_Cl_sn2_pc mp2_author_energy=-29302.391748605172 mp2_my_energy=0 hash=59123 address=T id=71 energy=-17370.230403735535 pbc="F F F"
C        2.52902870       1.51561380      -1.10912641      -0.14510786       0.42518678      -0.35384976       1.96725944       0.30212810      -0.42926544
C        1.09217815       1.64215498      -1.01610719       0.50356913       0.20819425      -0.36964897      -1.28114679      -0.74432752      -0.95515508
H        0.81848726       2.22702931      -0.15427415       0.10665637      -0.10015060      -0.01243784      -0.24573402      -0.06454176       0.34928280
F        1.12245221      -0.27878043      -1.03370879       1.93447849      -1.34501056      -0.55124759      -0.10399510      -0.07219243       0.03991302
Cl       3.09166981       3.58547803      -1.09247708      -0.66508265       2.41344719      -0.05463292       0.02438190      -0.29683038       0.10843467
H        3.03609327       1.26689426      -2.03394024       0.11144854      -0.00978426       0.03114347      -0.57185689      -0.00857392      -0.16970619
H        3.10187058       1.05793221      -0.31454194       0.05511086       0.17700809       0.02595498      -0.32872158       0.19304334       0.45197556
H        0.65725982       0.61813060      -0.99822639      -0.10935983       0.10757643      -0.02459504       0.39144768       0.60536224       0.30595970
H        0.68232034       2.10447711      -1.92595077      -0.02763173      -0.06277620       0.34604162       0.14836535       0.08593233       0.29856096
9
Properties=species:S:1:pos:R:3:momenta:R:3:forces:R:3 R1=H R2=H R3=CH3 R4=CH3 leaving_group=Cl nucleophile=Cl rxn=sn2 config=rcc label=H_H_CH3_CH3_Cl_Cl_sn2_rcc conformation=0 reactant_id=H_H_CH3_CH3_Cl_none_-_r product_id=H_H_CH3_CH3_none_Cl_sn2_pc mp2_author_energy=-29302.391748605172 mp2_my_energy=0 hash=59123 address=T id=71 energy=-17370.42758653115 pbc="F F F"
C        3.55436120       2.32014055      -1.73758194      -0.70884057       1.16292395      -0.19878585       0.06861055      -1.48605730       0.48905137
C        2.52844198       1.32246618      -1.27860401       0.24396991      -0.39631581       0.02506586       1.10751102       0.35128034      -1.38190807
H        2.44401586       1.35141936      -0.21274293       0.01597883      -0.17877563       0.16061666      -0.50604614      -0.23329818       0.50376168
F        3.44966417       0.18761075      -1.58842684       2.14127248       1.30439191      -0.54898942       0.09404889       1.10010405      -0.05161245
Cl       2.02058673       4.38738914      -1.08704588      -0.31361097       0.22311464      -0.27877223       0.05622388      -0.23397001      -0.04976144
H        3.89802818       2.03245879      -2.71401191      -0.04847765      -0.17439806       0.10438643       0.22422245       0.24896535      -0.32341975
H        4.38660704       2.60997639      -1.07697700      -0.00023341      -0.07499138       0.06260951      -0.49745902      -0.12892040      -0.18747119
H        2.59536896       0.32939754      -1.71370134       0.09999589      -0.25363564      -0.00172502      -0.09765894       0.25096369       0.56615894
H        1.63721445       1.55868554      -1.86718871       0.03752796      -0.10345991      -0.12577555      -0.44945267       0.13093246       0.43520090
9
Properties=species:S:1:pos:R:3:momenta:R:3:forces:R:3 R1=H R2=H R3=CH3 R4=CH3 leaving_group=Cl nucleophile=Cl rxn=sn2 config=rcc label=H_H_CH3_CH3_Cl_Cl_sn2_rcc conformation=0 reactant_id=H_H_CH3_CH3_Cl_none_-_r product_id=H_H_CH3_CH3_none_Cl_sn2_pc mp2_author_energy=-29302.391748605172 mp2_my_energy=0 hash=59123 address=T id=71 energy=-17370.736699054094 pbc="F F F"
C        3.88381694       3.16567495      -2.14978971       0.33898121      -0.10206081       0.17914379      -0.03059220      -1.46346712       0.96684854
C        3.67495197       1.87397778      -1.39905397       0.19821878       0.65127506      -0.35784019       0.44426828      -0.53885842      -2.54519331
H        3.48659044       1.92999202      -0.32850965      -0.12059244       0.25276243       0.02293198      -0.30887416       0.42005721       0.27478486
F        5.13452125       1.67397916      -2.00665853       0.21824820       3.10008526      -0.29237306      -0.57989803       0.71916773       0.08678735
Cl       1.48720020       4.04702300      -1.19833638       0.68068615      -2.08191640      -0.47816999      -0.15726416      -0.02805838       0.06896854
H        3.94650504       3.04693685      -3.22062557       0.24140155       0.11373011      -0.20945717       0.08640780       0.11770101      -0.07394500
H        4.58359277       3.85996660      -1.70882327       0.07089208      -0.00220576      -0.09324854       0.27493150       0.16759496      -0.06398226
H        4.57478919       1.29549179      -1.38796754       0.17512630       0.10747887      -0.07214296      -0.12116294      -0.18424673       0.25151185
H        2.95844000       1.22052562      -2.00116782       0.15531719      -0.02579867       0.23184295       0.39218391       0.79010975       1.03421944
9
Properties=species:S:1:pos:R:3:momenta:R:3:forces:R:3 R1=H R2=H R3=CH3 R4=CH3 leaving_group=Cl nucleophile=Cl rxn=sn2 config=rcc label=H_H_CH3_CH3_Cl_Cl_sn2_rcc conformation=0 reactant_id=H_H_CH3_CH3_Cl_none_-_r product_id=H_H_CH3_CH3_none_Cl_sn2_pc mp2_author_energy=-29302.391748605172 mp2_my_energy=0 hash=59123 address=T id=71 energy=-17371.141264654194 pbc="F F F"
C        4.14378444       4.25062506      -2.54285281       0.11149104       0.64830083      -0.77100900       1.31497269       0.05685820       1.03659337
C        4.78769825       3.28824801      -1.64048605      -0.10647999       0.69023108       0.10160706       0.13530342      -0.45348995      -1.14944530
H        4.43747726       3.46498236      -0.64733280       0.05643986      -0.18038493       0.25931709      -0.17839058       0.04785062       0.82259443
F        5.88241698       3.95593944      -2.21027589       1.24988566       2.37066404      -0.54492255      -0.97121688       0.52518358      -0.06172628
Cl       1.71566796       3.01103726      -1.49145285       0.56560564      -1.78251446      -0.33341301       0.22060133       0.16263944      -0.12241381
H        4.28040889       4.17971930      -3.58737487       0.17247480       0.15076612       0.20852655       0.03029529      -0.53772840      -0.97091215
H        4.14587887       5.30669712      -2.27995882      -0.13573468      -0.21280136      -0.03871578      -0.13127975      -0.09019635       0.40037895
H        5.85499889       3.27851651      -1.52432580      -0.03464861      -0.01910333       0.11827362       0.24193001       0.53601411      -0.05364274
H        4.65798472       2.27237639      -2.00722779      -0.08070998       0.18373851       0.01836601      -0.66221553      -0.24713126       0.09857354
9
Properties=species:S:1:pos:R:3:momenta:R:3:forces:R:3 R1=H R2=H R3=CH3 R4=CH3 leaving_group=Cl nucleophile=Cl rxn=sn2 config=rcc label=H_H_CH3_CH3_Cl_Cl_sn2_rcc conformation=0 reactant_id=H_H_CH3_CH3_Cl_none_-_r product_id=H_H_CH3_CH3_none_Cl_sn2_pc mp2_author_energy=-29302.391748605172 mp2_my_energy=0 hash=59123 address=T id=71 energy=-17371.495875975826 pbc="F F F"
C        4.08192457       4.99021664      -2.61111256      -0.25795916       0.21744454      -0.46473542       0.53355393       0.63255538      -1.56163127
C        5.21318318       4.75142345      -1.72835522      -0.10429886       0.17468035       0.50180830      -0.07580439      -0.98694621       1.20960503
H        4.88855154       4.58359481      -0.64683492       0.16590541      -0.21387561       0.01067618       0.37953738       0.51388718      -1.31526089
F        5.22049244       6.06232089      -2.33045451      -0.34910942       2.09470405      -0.07714896      -0.10055494      -0.22262091       0.15127848
Cl       3.21036776       2.28651048      -2.06132552       2.59792685      -0.38719285      -0.66983725      -0.12805405      -0.60943907       0.20036147
H        4.22926735       4.79457035      -3.71573358      -0.23277408      -0.05184182       0.12569684      -0.53209211       0.34416379       1.25447639
H        3.14978502       5.49665177      -2.31058781      -0.04279159      -0.12099197      -0.20510241       0.57623997      -0.22932700      -0.11924943
H        5.90464273       5.57903741      -1.72253879      -0.18266530       0.02937761       0.00050777      -0.20722583       0.27361925       0.18790387
H        5.86703313       3.93549381      -2.10263502       0.05630228      -0.04535152      -0.12313602      -0.44559995       0.28410759      -0.00748366
9
Properties=species:S:1:pos:R:3:momenta:R:3:forces:R:3 R1=H R2=H R3=CH3 R4=CH3 leaving_group=Cl nucleophile=Cl rxn=sn2 config=rcc label=H_H_CH3_CH3_Cl_Cl_sn2_rcc conformation=0 reactant_id=H_H_CH3_CH3_Cl_none_-_r product_id=H_H_CH3_CH3_none_Cl_sn2_pc mp2_author_energy=-29302.391748605172 mp2_my_energy=0 hash=59123 address=T id=71 energy=-17371.780669034368 pbc="F F F"
C        3.82238470       5.41519694      -2.70657891       0.07825809       0.64087803      -0.12887621      -0.19066574      -0.66028638      -0.55334853
C        5.02886823       5.65667300      -1.89122668      -0.51762246       0.29510719       0.03085237      -0.84131897      -1.33277410       0.48033720
H        4.89298337       5.20187829      -0.87836888      -0.06033574      -0.00098039      -0.11102781       0.14911954       0.54222555      -0.89346566
F        4.22076975       6.72897544      -2.27662900      -0.52020376      -1.30324282       0.08464135      -0.07156849      -0.00680578      -0.47653111
Cl       4.96729452       2.44698185      -2.54467115       2.39224800       1.31392966      -0.57766590      -0.19002170       0.47705341      -0.01189322
H        3.89328412       5.25795743      -3.82345732      -0.06226794       0.04711306      -0.07599210       0.03481010       0.42542924       1.35288955
H        2.84152310       5.18664674      -2.27155921       0.26886958       0.05914301       0.18830255       0.56083963       0.07180376      -0.13818872
H        5.16398308       6.70501324      -1.79454269      -0.12040262       0.15749620      -0.19992345       0.15699528       0.30994807       0.25014595
H        5.85288028       5.26153587      -2.46926046      -0.00386033       0.28614774      -0.00463660       0.39181035       0.17340623      -0.00994546
9
Properties=species:S:1:pos:R:3:momenta:R:3:forces:R:3 R1=H R2=H R3=CH3 R4=CH3 leaving_group=Cl nucleophile=Cl rxn=sn2 config=rcc label=H_H_CH3_CH3_Cl_Cl_sn2_rcc conformation=0 reactant_id=H_H_CH3_CH3_Cl_none_-_r product_id=H_H_CH3_CH3_none_Cl_sn2_pc mp2_author_energy=-29302.391748605172 mp2_my_energy=0 hash=59123 address=T id=71 energy=-17371.639319159473 pbc="F F F"
C        3.84375760       5.22427170      -2.68715470      -0.56669472      -0.86674239       0.21853242      -0.90181750      -0.40129395      -0.00491144
C        4.75885117       6.15790944      -2.09805693      -0.66222421       0.36128490      -0.11782255       1.11908000       0.84455023       0.00990875
H        5.07158224       5.83843898      -1.11922399      -0.06936697      -0.01409028      -0.01972728       0.33370809      -0.47359432       0.26469950
F        3.44067692       6.45179588      -2.32976975       0.53754049      -0.63889058       0.06245881      -0.12129552      -1.23896503      -0.41489627
Cl       6.46265795       3.47295854      -2.98005089       1.59052157       2.10031336      -0.49924331       0.34754989      -0.24565990      -0.01598923
H        3.89857946       5.00211752      -3.78531281       0.29107794       0.14603479       0.01397069      -0.18277707       0.37333641       1.09589401
H        3.58190677       4.33788749      -2.03557857       0.14520480       0.08825482      -0.15855107      -0.06900277       1.06094682      -0.79991976
H        4.22450782       7.06384866      -1.84832115       0.12300989       0.16420106      -0.11564276      -0.06920673       0.00132209      -0.51710664
H        5.56238956       6.40724894      -2.80576753      -0.06486487       0.02107774      -0.10705309      -0.45623839       0.07935766       0.38232107
9
Properties=species:S:1:pos:R:3:momenta:R:3:forces:R:3 R1=H R2=H R3=CH3 R4=CH3 leaving_group=Cl nucleophile=Cl rxn=sn2 config=rcc label=H_H_CH3_CH3_Cl_Cl_sn2_rcc conformation=0 reactant_id=H_H_CH3_CH3_Cl_none_-_r product_id=H_H_CH3_CH3_none_Cl_sn2_pc mp2_author_energy=-29302.391748605172 mp2_my_energy=0 hash=59123 address=T id=71 energy=-17371.398108858022 pbc="F F F"
C        4.34927794       4.93727103      -2.77151771       0.05935474      -0.39471948      -0.26887324      -0.24941990      -0.29975764      -2.78775274
C        4.39134571       6.39996708      -2.50036448      -0.78891655       0.12630282      -0.20569534       0.91798853      -0.38028195      -0.03350293
H        5.11544209       6.53969755      -1.69102826      -0.10861078       0.10154127       0.00464405      -0.22060638       0.22969053      -0.03249476
F        3.23962983       5.56236424      -2.37559063       0.98875595      -0.73178273      -0.62465572       1.48578619       0.06747703      -0.03724956
Cl       7.56345158       5.02626387      -3.30824093       1.87394303       3.23751518      -0.60805750      -0.02411961       0.03455644       0.01027394
H        4.44843818       4.69989190      -3.89701864      -0.23968279      -0.15184632       0.16920957      -0.47866990       0.32540134       1.77762589
H        4.84260585       4.07693307      -2.22627197      -0.04081590      -0.30372161       0.21249201      -0.82225300       1.60876368       0.35623454
H        3.44402143       6.75218404      -2.15763718       0.09071278       0.14326348       0.27534288      -0.42980371      -0.83706935       0.02237225
H        4.59629540       6.96034910      -3.44475677       0.03729289      -0.10187359       0.02337430      -0.17890222      -0.74878009       0.72449337
9
Properties=species:S:1:pos:R:3:momenta:R:3:forces:R:3 R1=H R2=H R3=CH3 R4=CH3 leaving_group=Cl nucleophile=Cl rxn=sn2 config=rcc label=H_H_CH3_CH3_Cl_Cl_sn2_rcc conformation=0 reactant_id=H_H_CH3_CH3_Cl_none_-_r product_id=H_H_CH3_CH3_none_Cl_sn2_pc mp2_author_energy=-29302.391748605172 mp2_my_energy=0 hash=59123 address=T id=71 energy=-17371.46329502506 pbc="F F F"
C        5.17038552       4.77672252      -2.84371316      -0.02503483      -0.22357814      -0.49271572       3.94157182      -0.70618097      -2.11937330
C        4.45790431       6.00243212      -2.98383161       0.37999867      -0.19561648      -0.36741820      -0.89303116      -0.35792202       0.47351298
H        4.91386271       6.67891845      -2.23989677      -0.06654959       0.11194145       0.16169266      -0.71336180      -0.41632440      -0.15739786
F        3.90272915       4.67477098      -2.63914128       0.31693636      -1.07003031       0.25622442      -2.22151897       0.55604204       0.57618228
Cl       7.84750124       6.74677036      -3.47986654       0.44604516       2.49652965      -0.19520667      -0.49466950      -0.38705099       0.12645810
H        5.50509768       4.21285026      -3.77379614       0.36977112       0.03154883       0.00243857      -0.23565255       0.84878104       1.45071339
H        5.82120077       4.80735035      -1.99295034       0.11692034       0.33011884      -0.10821660       0.24858634      -0.48885238       0.20514664
H        3.43309031       5.66287678      -2.78571897      -0.00721022       0.12159541      -0.14039740       0.31709052       0.60870219       0.33366021
H        4.50190456       6.30956920      -3.99873020      -0.05629434      -0.08645811       0.07840687       0.05098531       0.34280551      -0.88890244
9
Properties=species:S:1:pos:R:3:momenta:R:3:forces:R:3 R1=H R2=H R3=CH3 R4=CH3 leaving_group=Cl nucleophile=Cl rxn=sn2 config=rcc label=H_H_CH3_CH3_Cl_Cl_sn2_rcc conformation=0 reactant_id=H_H_CH3_CH3_Cl_none_-_r product_id=H_H_CH3_CH3_none_Cl_sn2_pc mp2_author_energy=-29302.391748605172 mp2_my_energy=0 hash=59123 address=T id=71 energy=-17371.629534578322 pbc="F F F"
C        6.27933155       4.96375352      -2.93706897      -0.82590596       1.07381298      -0.13267252      -0.83277617      -0.99891132       1.80669910
C        5.08716495       5.63256553      -3.42038692       1.31483518      -0.13847076      -0.20500251      -0.24896930       1.47680552       0.12721215
H        4.76690533       6.49380527      -2.79857846       0.08810519       0.10662924      -0.11272817       0.50712175      -0.59805146       0.12013961
F        5.08911769       4.34262335      -3.04799698       1.95304269      -0.94848072       0.04981884       1.15385592       0.06083031      -0.18971891
Cl       7.41037472       7.92807377      -3.53373732      -1.04538168       1.09860198       0.15819217       0.00173466      -0.02758904      -0.00560100
H        7.09220370       4.57348756      -3.54828261       0.16392794       0.27268912      -0.25171008      -0.55415195       0.08431578      -0.50705769
H        6.56516584       4.87482344      -1.86720075      -0.00303712      -0.05567683      -0.06697414      -0.34739400       0.53988086      -0.81950824
H        4.23617407       4.97080437      -3.37768625      -0.02360463       0.14112362      -0.11280292       0.34397323      -0.29995662      -0.11614133
H        5.23326551       5.95405666      -4.44024809      -0.16269308      -0.04990171      -0.12296142      -0.02339414      -0.23732402      -0.41602369
9
Properties=species:S:1:pos:R:3:momenta:R:3:forces:R:3 R1=H R2=H R3=CH3 R4=CH3 leaving_group=Cl nucleophile=Cl rxn=sn2 config=rcc label=H_H_CH3_CH3_Cl_Cl_sn2_rcc conformation=0 reactant_id=H_H_CH3_CH3_Cl_none_-_r product_id=H_H_CH3_CH3_none_Cl_sn2_pc mp2_author_energy=-29302.391748605172 mp2_my_energy=0 hash=59123 address=T id=71 energy=-17371.61446377016 pbc="F F F"
C        7.19909772       5.52247270      -3.13855341       0.11876834       0.62846226      -0.22872653      -1.11313869      -0.03665896       0.57203774
C        5.91460936       5.47552644      -3.87947110       0.47993056       0.16769234       0.10374098      -0.73402570       0.60269586      -0.12257209
H        5.03764981       5.75916173      -3.29514769       0.09740372      -0.26436103      -0.00840910       0.24615074       0.76685449      -0.04527849
F        6.54190989       4.40775959      -3.42345592       1.00043641       0.64246783      -0.51167672       1.34491295      -1.27691512       0.34577270
Cl       6.79909858       8.64118994      -3.53278193      -1.09263809       0.03793342       0.01928482      -0.05257368       0.29744288      -0.05242734
H        8.13767524       5.64833314      -3.66688795       0.28203843      -0.30497334       0.21804214      -0.03111309      -0.05832851       0.01189449
H        7.20122231       5.76009804      -2.05101635       0.18094082       0.14219793       0.00849442       0.08065968      -0.14516659      -0.94532273
H        5.70191839       4.43978858      -4.04866097       0.04058648       0.08783863      -0.06311900       0.05367387      -0.16653181      -0.25172217
H        5.96879982       5.89073101      -4.90545607      -0.00707227      -0.00591817      -0.13849853       0.20545392       0.01660775       0.48761788
9
Properties=species:S:1:pos:R:3:momenta:R:3:forces:R:3 R1=H R2=H R3=CH3 R4=CH3 leaving_group=Cl nucleophile=Cl rxn=sn2 config=rcc label=H_H_CH3_CH3_Cl_Cl_sn2_rcc conformation=0 reactant_id=H_H_CH3_CH3_Cl_none_-_r product_id=H_H_CH3_CH3_none_Cl_sn2_pc mp2_author_energy=-29302.391748605172 mp2_my_energy=0 hash=59123 address=T id=71 energy=-17371.54358921673 pbc="F F F"
C        7.95144145       6.27092498      -3.40362549       1.85508850      -0.00831177       0.37113852       1.77018504       0.96334047       0.11599207
C        7.06276370       5.63000435      -4.32988043       0.22915578       0.16866002      -0.92415148      -0.80590526       1.15020696      -1.31058474
H        6.10449826       5.67743282      -3.82221619       0.12453730      -0.15552408       0.00160667      -0.10608897      -0.50349353       0.15384852
F        8.28213962       5.07222578      -3.86014986       0.53594178       1.81445290      -0.37124798      -1.48025324      -0.30838355       0.40756514
Cl       6.04119582       8.89406076      -3.52898940      -1.59553683      -0.02477824      -0.26599480      -0.04631117      -0.02854357      -0.03245575
H        8.77457517       6.93830082      -3.70586200       0.40316198      -0.13578758       0.31443413      -0.80745109      -0.07817687       0.23100707
H        7.56437910       6.44692561      -2.38304618       0.14505922       0.02546937       0.15023270       0.40241901      -0.58937222      -0.49612652
H        7.35210219       4.60925437      -4.46724399       0.07638065      -0.00739346       0.04411414       0.68881379       0.01317250       0.17770246
H        7.03787079       6.17134346      -5.30053639      -0.22192709      -0.08128414      -0.16752176       0.38459189      -0.61875018       0.75305175
9
Properties=species:S:1:pos:R:3:momenta:R:3:forces:R:3 R1=H R2=H R3=CH3 R4=CH3 leaving_group=Cl nucleophile=Cl rxn=sn2 config=rcc label=H_H_CH3_CH3_Cl_Cl_sn2_rcc conformation=0 reactant_id=H_H_CH3_CH3_Cl_none_-_r product_id=H_H_CH3_CH3_none_Cl_sn2_pc mp2_author_energy=-29302.391748605172 mp2_my_energy=0 hash=59123 address=T id=71 energy=-17371.50610202671 pbc="F F F"
C        8.60836902       7.10807742      -3.63313357       0.07436230       0.25842857      -0.77228945       1.81514580       1.31936221      -0.76318436
C        8.04728034       6.29871275      -4.65956761       0.63280745       0.51869507      -0.02029362       1.24605926      -0.64774886      -0.06928852
H        7.38255656       5.56167815      -4.19774360       0.02612658       0.14860948      -0.03259736      -0.14975813       0.17928264      -0.55244816
F        9.47710009       6.22492388      -4.17060787       0.74596267       0.75924192       0.04679698      -2.28046319       0.86294928      -0.05394276
Cl       5.55136639       8.52385333      -3.58460284      -0.43756426      -0.66294420      -0.14291746       0.50694754      -0.21656381       0.01000865
H        8.95308938       8.14984207      -3.94814792      -0.37773791       0.03306231      -0.02662772      -0.72991879      -1.38207339       0.93093323
H        8.39294108       6.91454505      -2.59173443       0.32320695      -0.04546917      -0.04437473       0.07841178       0.14726889      -0.01262497