9
Properties=species:S:1:pos:R:3:momenta:R:3:forces:R:3 R1=H R2=H R3=CH3 R4=CH3 leaving_group=Cl nucleophile=Cl rxn=sn2 config=rcc label=H_H_CH3_CH3_Cl_Cl_sn2_rcc conformation=0 reactant_id=H_H_CH3_CH3_Cl_none_-_r product_id=H_H_CH3_CH3_none_Cl_sn2_pc mp2_author_energy=-29302.391748605172 mp2_my_energy=0 hash=59123 address=T id=71 energy=-17370.412368016237 pbc="F F F"
C        0.12542541       0.11270554      -0.00029240      -0.11162912       0.17373679       0.64424842      -0.09214561       1.11788396      -0.00082481
C        1.62503867       0.00847468       0.00156754      -0.03502961       0.38699478      -0.64981475      -0.06338950      -0.85342640       0.00215309
H        1.99473018      -0.50605055       0.89354482      -0.08978087      -0.11690093       0.07430589       0.00320508       0.00300841       0.00517082
F        0.89788639       2.64149152      -0.00442372       0.34999083      -0.17004375      -0.68541018      -0.23271315      -0.10403772      -0.00076135
Cl      -0.69504884      -1.53494042       0.00509220       1.22725452       0.01865715      -1.20660068       0.38207948      -0.16174994      -0.00050876
H       -0.22306082       0.64592326      -0.87549887      -0.13987662       0.11575757       0.01602431      -0.00302890      -0.00293595      -0.00472561
H       -0.22431889       0.65275656       0.87018381      -0.01566638       0.01397259       0.07426004      -0.00396382      -0.00350204       0.00469305
H        1.88822962       1.08069343      -0.00059746       0.06068819      -0.28884280       0.17009550       0.00778691       0.00253743      -0.00033365
H        1.99700981      -0.51031959      -0.88698835      -0.09017096      -0.02009365       0.08883756       0.00216950       0.00222225      -0.00486279
9
Properties=species:S:1:pos:R:3:momenta:R:3:forces:R:3 R1=H R2=H R3=CH3 R4=CH3 leaving_group=Cl nucleophile=Cl rxn=sn2 config=rcc label=H_H_CH3_CH3_Cl_Cl_sn2_rcc conformation=0 reactant_id=H_H_CH3_CH3_Cl_none_-_r product_id=H_H_CH3_CH3_none_Cl_sn2_pc mp2_author_energy=-29302.391748605172 mp2_my_energy=0 hash=59123 address=T id=71 energy=-17370.272915515583 pbc="F F F"
C        0.78136898       0.13303044      -0.52974472       0.46862455      -0.71427469      -0.26654962      -0.70421981       0.51679258       0.66375045
C        2.29079091       0.05770893      -0.66779542       1.29133879       0.44583532      -0.31450451      -0.85597427      -0.42073211      -0.98030338
H        2.76123439      -0.60037428       0.02612357      -0.06900864       0.10374528      -0.11685377       0.15613984      -0.50233013       0.97623484
F        1.13609346       2.74681722      -0.57270403       0.38567669      -0.16520916      -0.61185365       0.18425750      -0.19796764       0.13017021
Cl      -0.09243363      -1.49260989      -0.82775659       0.01995055       0.21984052      -1.43115685       0.86025505       0.09339199       0.07884313
H        0.33731023       0.87125346      -1.18840748      -0.04644066      -0.16236109      -0.03705641       0.28475726      -0.09670117       0.10021036
H        0.50421880       0.40384381       0.50350554       0.16193340      -0.17819278      -0.06428591       0.20184639      -0.02616575      -0.72329056
H        2.55539918       1.10431146      -0.47822788      -0.12386941       0.42094397      -0.04922438       0.04099913       0.04730766      -0.29393499
H        2.59518221      -0.33409222      -1.65295416       0.13258137       0.24725463       0.05914743      -0.16806108       0.58640457       0.04831995
9
Properties=species:S:1:pos:R:3:momenta:R:3:forces:R:3 R1=H R2=H R3=CH3 R4=CH3 leaving_group=Cl nucleophile=Cl rxn=sn2 config=rcc label=H_H_CH3_CH3_Cl_Cl_sn2_rcc conformation=0 reactant_id=H_H_CH3_CH3_Cl_none_-_r product_id=H_H_CH3_CH3_none_Cl_sn2_pc mp2_author_energy=-29302.391748605172 mp2_my_energy=0 hash=59123 address=T id=71 energy=-17370.14103603536 pbc="F F F"
C        1.28262531       0.30737414      -1.47843713       0.68529104      -0.28533383      -1.02643604       1.28822995      -1.72234787      -0.15273930
C        2.76568769       0.30429024      -1.82777417       0.58257750       0.77763924      -0.48248410      -0.20260392       1.14388775       1.84839173
H        3.23136196      -0.52658552      -1.21940459      -0.06185570       0.04113695       0.10464436      -0.04603629       1.09198487      -0.83124823
F        1.82030022       2.87737974      -1.19862346       0.26809066      -0.09851274      -0.10798972      -0.15437792      -0.19285528       0.06562035
Cl       0.94678421      -1.55492174      -1.91944047       0.81000659      -0.03100983      -1.10070631      -0.64136186       0.87023913       0.34966407
H        0.63265006       0.93533750      -2.03728816       0.10506542      -0.09197752      -0.21399701      -0.24831572       0.33205844      -0.53065502
H        1.08669919       0.40014212      -0.42059153       0.14503117       0.10622586      -0.07342564      -0.04252378       0.04638436       0.04880520
H        3.08034429       1.36470794      -1.57979048      -0.04717562      -0.13065604      -0.02417930      -0.16266891      -1.05765943       0.13230793
H        2.89203691       0.18279013      -2.87743437       0.05981143      -0.03798471      -0.32360769       0.20965846      -0.51169199      -0.93014672
9
Properties=species:S:1:pos:R:3:momenta:R:3:forces:R:3 R1=H R2=H R3=CH3 R4=CH3 leaving_group=Cl nucleophile=Cl rxn=sn2 config=rcc label=H_H_CH3_CH3_Cl_Cl_sn2_rcc conformation=0 reactant_id=H_H_CH3_CH3_Cl_none_-_r product_id=H_H_CH3_CH3_none_Cl_sn2_pc mp2_author_energy=-29302.391748605172 mp2_my_energy=0 hash=59123 address=T id=71 energy=-17370.26738474864 pbc="F F F"
C        2.02021918       0.37274982      -2.50625596      -0.50662591       0.11134989      -0.24348263      -0.32507180      -0.26889418       1.26415740
C        3.48537293       0.49201598      -2.74065180      -0.04694244      -0.88932136      -0.55556279       0.24778052      -0.56300795      -0.35671104
H        4.05605225      -0.01461004      -1.96126403       0.00814335      -0.00847874       0.06604137      -0.02460037      -0.21812608       0.10047837
F        2.04287936       2.67654988      -1.59288544       0.41389429       0.39570951      -0.17259308       0.27292787       1.01693363       0.09870169
Cl       1.58144845      -1.42533887      -2.63980590       1.87659039       0.39043256      -1.25156995      -0.13831217      -0.66477619      -0.43689899
H        1.42596735       0.95671179      -3.19630470      -0.09947079      -0.03077787      -0.04314655      -0.07035844      -0.10985837      -0.13174496
H        1.79189827       0.70810704      -1.49643278      -0.02238203       0.08608937       0.00689811      -0.20137283      -0.16759551      -0.37609084
H        3.63959572       1.56141161      -2.60706136       0.07502150       0.04652453      -0.09695602       0.04996175       0.27764090      -0.46424309
H        3.74312127       0.02173814      -3.70851183      -0.00333703       0.06452942       0.12874806       0.18904548       0.69768375       0.30235147
9
Properties=species:S:1:pos:R:3:momenta:R:3:forces:R:3 R1=H R2=H R3=CH3 R4=CH3 leaving_group=Cl nucleophile=Cl rxn=sn2 config=rcc label=H_H_CH3_CH3_Cl_Cl_sn2_rcc conformation=0 reactant_id=H_H_CH3_CH3_Cl_none_-_r product_id=H_H_CH3_CH3_none_Cl_sn2_pc mp2_author_energy=-29302.391748605172 mp2_my_energy=0 hash=59123 address=T id=71 energy=-17370.08280827228 pbc="F F F"
C        2.75501662       0.45361305      -3.22565989       1.10499015      -0.68904994      -0.70856974      -0.08023478      -0.19044628       0.83116989
C        4.15117038       0.86037653      -3.51569647       0.88061771      -0.02106796      -0.46771530      -0.11034431       1.61144278      -1.70354438
H        4.85972750       0.17538950      -3.07991636       0.07166120       0.00302206      -0.29318434       0.42886247      -0.03796500       0.00662540
F        2.70950031       2.72636001      -2.58948412      -0.52292581      -0.30690290      -0.97297067      -0.16532174       0.08950751       0.16569881
Cl       2.59511557      -1.45045611      -3.96710322       0.88109725       1.17363100      -1.44910942       0.02146366       0.38491266       0.12796621
H        1.96907813       1.06381046      -3.64945294       0.12204403       0.11489757       0.14777600       0.10852100      -0.19818221      -0.05639019
H        2.62002443       0.27240783      -2.14408389       0.15009519       0.07695332      -0.02032861      -0.18322915       0.13974603      -0.82157640
H        4.07666360       1.90579110      -3.06382415       0.12748600      -0.24295749      -0.04062170       0.16574325      -0.94087936       0.14304218
H        4.33355259       1.08028971      -4.62159667       0.06779158       0.17392283       0.12799714      -0.18546041      -0.85813613       1.30700849
9
Properties=species:S:1:pos:R:3:momenta:R:3:forces:R:3 R1=H R2=H R3=CH3 R4=CH3 leaving_group=Cl nucleophile=Cl rxn=sn2 config=rcc label=H_H_CH3_CH3_Cl_Cl_sn2_rcc conformation=0 reactant_id=H_H_CH3_CH3_Cl_none_-_r product_id=H_H_CH3_CH3_none_Cl_sn2_pc mp2_author_energy=-29302.391748605172 mp2_my_energy=0 hash=59123 address=T id=71 energy=-17370.026527302143 pbc="F F F"
C        3.46607122       0.64695415      -4.14010488       0.15222533       0.35786241      -0.55447074      -0.17502104      -0.38044723       0.70989276
C        4.89867646       0.93282180      -4.43504152      -0.47000512      -0.67811384      -0.36000647       0.96569279       2.00820419      -0.35863898
H        5.54068984       0.14146871      -4.03544212      -0.00322178       0.22172234       0.11186994       0.00012252       0.26945087       0.14596420
F        3.03537894       2.59775773      -3.20246155       0.58542266       1.08886724       0.18593792       0.27353473      -0.01197625      -0.09068668
Cl       3.42511242      -1.31493587      -4.92779439       2.18500791      -0.52853197      -1.86515350      -0.17387919      -0.71092840      -0.40157214
H        2.72667217       1.10450026      -4.75331710      -0.00183164       0.13663665      -0.01288706      -0.33578341       0.14356154      -0.10508879
H        3.16344840       0.34696331      -3.13425478      -0.02416510      -0.00527900      -0.03857554       0.27712683       0.48206587      -0.52378816
H        5.13830037       1.97242878      -3.97930859      -0.10752750      -0.16642196      -0.12805878      -0.44069187      -1.83500920      -0.69479849
H        5.10163077       0.96097146      -5.55482520      -0.07430236      -0.20712045      -0.19754138      -0.39110137       0.03507862       1.31871627
9
Properties=species:S:1:pos:R:3:momenta:R:3:forces:R:3 R1=H R2=H R3=CH3 R4=CH3 leaving_group=Cl nucleophile=Cl rxn=sn2 config=rcc label=H_H_CH3_CH3_Cl_Cl_sn2_rcc conformation=0 reactant_id=H_H_CH3_CH3_Cl_none_-_r product_id=H_H_CH3_CH3_none_Cl_sn2_pc mp2_author_energy=-29302.391748605172 mp2_my_energy=0 hash=59123 address=T id=71 energy=-17370.203596526986 pbc="F F F"
C        4.07308475       0.96396189      -4.86667732       0.07118184      -0.24080448       0.06339579       0.35738617      -1.21686403      -0.26092717
C        5.39999018       1.52410338      -5.20170105      -0.29703256       0.18397603      -0.95430184      -0.32556417       0.72494588      -0.45455294
H        5.28553719       2.29393753      -6.00312482      -0.05772115      -0.30006256       0.02012953       0.22126097      -0.37611924       0.82091377
F        3.71006992       2.58027416      -3.73079888       0.84148804      -0.46465860      -1.10138815      -0.33193062       0.58282372       0.53574027
Cl       4.21517156      -1.50907081      -6.07365778       1.27934659       1.39159000      -0.95475613       0.12859898       0.73674616       0.20752894
H        3.19732727       1.19166049      -5.42245663       0.00487630      -0.05882388       0.01329298      -0.29890539      -0.01003395      -0.31016641
H        4.02966211       0.17109539      -4.14379364      -0.00890094      -0.27705397      -0.19924573      -0.17458292       0.02526872       0.16590901
H        6.10652435       0.80054507      -5.53242104       0.21858743      -0.10931725       0.14398228       0.38596822      -0.91848764      -0.49605264
H        5.76031606       1.93064143      -4.25864536       0.08136107       0.08415407       0.24827658       0.03776876       0.45172038      -0.20839284
9
Properties=species:S:1:pos:R:3:momenta:R:3:forces:R:3 R1=H R2=H R3=CH3 R4=CH3 leaving_group=Cl nucleophile=Cl rxn=sn2 config=rcc label=H_H_CH3_CH3_Cl_Cl_sn2_rcc conformation=0 reactant_id=H_H_CH3_CH3_Cl_none_-_r product_id=H_H_CH3_CH3_none_Cl_sn2_pc mp2_author_energy=-29302.391748605172 mp2_my_energy=0 hash=59123 address=T id=71 energy=-17370.57770994409 pbc="F F F"
C        4.51569859       0.89479099      -5.34334432       0.29846959      -0.19420979      -0.19504579      -0.29769762       1.93345448      -0.95976130
C        5.70188513       1.56362768      -5.93819615       0.07741109      -0.04170610      -0.16645242       1.70841024      -0.20876204       1.38138063
H        6.40926680       1.74194171      -5.04829829       0.05433151       0.32732971       0.12001279      -0.68736119      -0.16262419      -1.53663675
F        4.29169504       2.45190435      -4.29739657       0.74509469      -0.21334317      -0.84919842      -0.39747416      -0.63350935      -0.12782090
Cl       4.92485965      -1.30394594      -6.96030013       0.97919049       0.12478986      -1.70245915      -0.05748424       0.02599806       0.04542456
H        3.61219935       0.93223642      -5.96461386      -0.07568096      -0.07299591      -0.04570039       0.16168703      -0.42959757       0.70200564
H        4.62644738       0.28731820      -4.48553876       0.02344592       0.17699387       0.24738401      -0.19419850      -0.64602742       0.36899293
H        5.43396780       2.52125904      -6.33734230      -0.16950864       0.16859013      -0.21525746      -0.38882556       0.70973869       0.04086887
H        6.18729608       1.03757786      -6.74526704       0.16957564      -0.06947247       0.12545675       0.15294399      -0.58867067       0.08554631
9
Properties=species:S:1:pos:R:3:momenta:R:3:forces:R:3 R1=H R2=H R3=CH3 R4=CH3 leaving_group=Cl nucleophile=Cl rxn=sn2 config=rcc label=H_H_CH3_CH3_Cl_Cl_sn2_rcc conformation=0 reactant_id=H_H_CH3_CH3_Cl_none_-_r product_id=H_H_CH3_CH3_none_Cl_sn2_pc mp2_author_energy=-29302.391748605172 mp2_my_energy=0 hash=59123 address=T id=71 energy=-17370.97301183638 pbc="F F F"
C        5.34459110       0.90989213      -5.88265434       1.11878990       0.23956863       0.25315496      -0.97017519       1.63217822      -0.23274159
C        6.22679479       1.81214318      -6.68616007       0.35185462      -0.04699647       0.19724069      -2.27532427       2.26273502       0.90913195
H        5.55850869       2.40956419      -7.35540175      -0.10415863       0.24229375      -0.14176879       0.57126870      -0.37096650       0.31069464
F        4.72091116       2.27660440      -4.99381304       0.15515264      -0.36933347      -1.63629809       0.06120897      -1.10033260       0.14331556
Cl       5.57708932      -1.17717044      -7.87611776       0.92635185       0.07356909      -1.75864269       0.08460784       0.00402989       0.06185790
H        4.38765533       0.54534335      -6.27130420      -0.06175026      -0.02243193       0.11027577       0.79772890      -0.02514869       0.20100737
H        5.90297501       0.33377627      -5.17886834       0.26793807      -0.01108169      -0.17369818      -0.24312228      -0.61473742       0.67768305
H        6.91380556       1.30736947      -7.27127512      -0.22014985       0.10973934      -0.05187941       1.65442158      -0.95826592      -0.95746629
H        6.59712990       2.55183755      -5.91937816       0.06244495       0.02926521       0.01767396       0.31938577      -0.82949200      -1.11348259
9
Properties=species:S:1:pos:R:3:momenta:R:3:forces:R:3 R1=H R2=H R3=CH3 R4=CH3 leaving_group=Cl nucleophile=Cl rxn=sn2 config=rcc label=H_H_CH3_CH3_Cl_Cl_sn2_rcc conformation=0 reactant_id=H_H_CH3_CH3_Cl_none_-_r product_id=H_H_CH3_CH3_none_Cl_sn2_pc mp2_author_energy=-29302.391748605172 mp2_my_energy=0 hash=59123 address=T id=71 energy=-17371.621022177067 pbc="F F F"
C        5.94209325       1.11521107      -6.69866976       0.54199730       0.18193326      -0.50381377      -0.47703485      -1.08780837      -0.35496083
C        6.72012075       2.10211269      -7.47100704       0.11985285       1.10275635      -0.80329733      -0.82657569       1.44488644      -0.69531787
H        6.07240523       2.68457788      -8.19561292      -0.01528834      -0.09440110      -0.04070596       0.45435905      -0.56284778       1.08198405
F        5.27299786       2.07431204      -5.67298497       0.63477395      -1.22287560      -0.94599241      -1.15597227       0.81355280       1.38188449
Cl       6.37242054      -1.11278981      -8.81592066       0.81117067       0.56207594      -0.53505116       0.01430862       0.32077402       0.31262970
H        5.11717940       0.59328393      -7.18233108      -0.05801832      -0.05627786      -0.11521904       0.31674954       0.30237488      -0.08322524
H        6.46554855       0.43699760      -6.03462636      -0.08969303      -0.04713881      -0.19753198       0.40038621      -0.02176602      -0.31410753
H        7.38369576       1.58755747      -8.09084130       0.17341746      -0.33608602       0.11997276       1.44061377      -0.74795360      -0.94428683
H        7.21643399       2.80938169      -6.77895350       0.14775492       0.13202243       0.13167870      -0.16683438      -0.46121238      -0.38459995
9
Properties=species:S:1:pos:R:3:momenta:R:3:forces:R:3 R1=H R2=H R3=CH3 R4=CH3 leaving_group=Cl nucleophile=Cl rxn=sn2 config=rcc label=H_H_CH3_CH3_Cl_Cl_sn2_rcc conformation=0 reactant_id=H_H_CH3_CH3_Cl_none_-_r product_id=H_H_CH3_CH3_none_Cl_sn2_pc mp2_author_energy=-29302.391748605172 mp2_my_energy=0 hash=59123 address=T id=71 energy=-17372.008691078507 pbc="F F F"
C        6.55542606       1.25974228      -7.45651902       0.10151181       0.83594695      -0.87026138      -0.73261750       0.04462645       0.92925108
C        7.13929194       2.37856370      -8.24269326       0.53234324      -0.58655208      -0.94626515      -0.83007662       1.33321969       1.13526496
H        6.28598857       3.08841245      -8.47886806      -0.04825377       0.15122922      -0.13253735       1.25392996      -0.68724842      -0.04930650
F        5.78837161       1.88520971      -6.33755956       0.79863209      -1.66963600      -0.90899467       1.07555821      -0.81444166      -1.01523897
Cl       7.13848830      -1.04172911      -9.70139493       0.91636874       0.93639847      -0.44239167      -0.02248410       0.44365798       0.37804918
H        5.83932434       0.72081589      -8.05868498       0.00532220       0.07905013      -0.02911491      -0.00159226      -0.35155216       0.14169490
H        7.33583591       0.59618106      -7.04173624       0.02805447       0.07338190       0.04365039      -0.66284774       0.20309732      -0.02486662
H        7.60519495       1.93297811      -9.07741077       0.22692459       0.35750453       0.11625270       0.28465993      -0.33023830      -1.42887050
H        7.92409454       2.88680476      -7.66201414       0.03255647       0.07677159      -0.13797404      -0.36452990       0.15887910      -0.06597754
9
Properties=species:S:1:pos:R:3:momenta:R:3:forces:R:3 R1=H R2=H R3=CH3 R4=CH3 leaving_group=Cl nucleophile=Cl rxn=sn2 config=rcc label=H_H_CH3_CH3_Cl_Cl_sn2_rcc conformation=0 reactant_id=H_H_CH3_CH3_Cl_none_-_r product_id=H_H_CH3_CH3_none_Cl_sn2_pc mp2_author_energy=-29302.391748605172 mp2_my_energy=0 hash=59123 address=T id=71 energy=-17371.891779584323 pbc="F F F"
C        7.38793012       1.26934261      -8.50682127       0.20277601      -0.47041536      -0.64530719      -1.14540369       0.73210526      -1.58491506
C        7.59114461       2.57771618      -9.26213808       0.58034110       0.73719901      -1.48609818       2.69718462      -0.49321926      -1.05448259
H        6.74534635       3.19662427      -9.29085439      -0.13602372       0.08182040      -0.05298007      -1.70558787       0.40299420      -0.25623983
F        6.60068425       1.68087827      -7.33952321       1.74278685      -1.16440308      -2.08227929       0.36690569      -0.31482882       0.54585372
Cl       8.17374429      -0.83629340     -10.86224836       1.53359639       1.36202884      -0.77539600      -0.01399578       0.35802813       0.28311344
H        6.79218231       0.51425398      -9.03156387      -0.05700015      -0.06786361      -0.03550200       0.31965421       0.48342286       0.09598036
H        8.33977610       0.85936068      -8.24110388      -0.09399164      -0.11267624      -0.09255416       0.40138212      -0.43499990       0.65202628
H        8.05480172       2.46942362     -10.28765229      -0.15717447      -0.13996155       0.04642620      -0.87425639      -0.36763100       1.02042611
H        8.33024384       3.21149172      -8.74687062       0.16176765       0.14433153       0.30649654      -0.04588291      -0.36587146       0.29823756
9
Properties=species:S:1:pos:R:3:momenta:R:3:forces:R:3 R1=H R2=H R3=CH3 R4=CH3 leaving_group=Cl nucleophile=Cl rxn=sn2 config=rcc label=H_H_CH3_CH3_Cl_Cl_sn2_rcc conformation=0 reactant_id=H_H_CH3_CH3_Cl_none_-_r product_id=H_H_CH3_CH3_none_Cl_sn2_pc mp2_author_energy=-29302.391748605172 mp2_my_energy=0 hash=59123 address=T id=71 energy=-17371.956545723457 pbc="F F F"
C        8.06659339       1.27753284      -9.49601104      -0.09486738       0.68859342      -0.75427042       0.39878936       0.22083605      -0.69872871
C        8.07408508       2.60681884     -10.23806098       0.35508960      -0.14033411      -0.37158477      -1.33061414      -2.35792976      -1.41321237
H        7.03679685       2.91885976     -10.15382651       0.00190184      -0.01598460      -0.25306174      -0.18912291       0.45828955      -0.27030421
F        7.36397159       1.50787077      -8.22640748       0.98599070      -1.08147199      -0.75434400       0.59288840       0.02834826       0.06880811
Cl       9.10760633      -0.57368428     -11.87875457       1.08417498       0.74184350      -0.51089317      -0.00715553       0.14873949       0.04974728
H        7.47374661       0.56477753     -10.03179341      -0.12821343       0.11042925       0.07373439      -0.08895985      -0.48781730      -0.18128135
H        9.08960663       0.88404085      -9.35732688      -0.01648131      -0.06499393      -0.15329968      -0.68986641       0.11408411       0.44205724
H        8.32719617       2.39611855     -11.33219061      -0.07725176      -0.00217227      -0.08523115       0.03535985       0.51655358       1.58070213
H        8.67010391       3.28029717      -9.70792942       0.22438005      -0.00716431      -0.16869920       1.27868124       1.35889603       0.42221188
9
Properties=species:S:1:pos:R:3:momenta:R:3:forces:R:3 R1=H R2=H R3=CH3 R4=CH3 leaving_group=Cl nucleophile=Cl rxn=sn2 config=rcc label=H_H_CH3_CH3_Cl_Cl_sn2_rcc conformation=0 reactant_id=H_H_CH3_CH3_Cl_none_-_r product_id=H_H_CH3_CH3_none_Cl_sn2_pc mp2_author_energy=-29302.391748605172 mp2_my_energy=0 hash=59123 address=T id=71 energy=-17372.030916718406 pbc="F F F"
C        8.78478229       1.27928961     -10.48478803      -0.22137731      -0.16757246      -1.36501776       0.12230411      -0.09046204       0.07390648
C        8.56342898       2.58666214     -11.21534377       0.13284844      -0.14392181       0.44631690       0.77456075      -0.40994298      -1.05329436
H        7.54442612       2.89066292     -11.30921427       0.16909296       0.18284552       0.06793610      -0.93356634       0.25236478       0.74332246
F        8.13822016       1.32666790      -9.16090326       1.40675629      -0.01950291      -1.31650661       0.18650515       0.19844998      -0.53430634
Cl      10.04272609      -0.29453579     -12.92588919       1.62231679       0.78565282      -0.90210178       0.05469338       0.03511689      -0.08045920
H        8.43120016       0.39146064     -11.01652887      -0.18988819      -0.12933996       0.25838053      -0.20083185       0.47661976       0.21596729
H        9.85071611       1.12598730     -10.30102518      -0.15843684       0.05909178      -0.24288561      -0.13016195      -0.02917577       0.06703671
H        8.80839253       2.44309287     -12.27676852       0.06557324       0.01487265      -0.31743921       0.46665104      -0.36141722       0.24668570
H        9.22260580       3.39104372     -10.87607714       0.00563149      -0.30460924      -0.24120619      -0.34015429      -0.07155341       0.32114125
9
Properties=species:S:1:pos:R:3:momenta:R:3:forces:R:3 R1=H R2=H R3=CH3 R4=CH3 leaving_group=Cl nucleophile=Cl rxn=sn2 config=rcc label=H_H_CH3_CH3_Cl_Cl_sn2_rcc conformation=0 reactant_id=H_H_CH3_CH3_Cl_none_-_r product_id=H_H_CH3_CH3_none_Cl_sn2_pc mp2_author_energy=-29302.391748605172 mp2_my_energy=0 hash=59123 address=T id=71 energy=-17372.06865966213 pbc="F F F"
C        9.53648105       1.23350642     -11.51669405      -0.12401322      -0.27820972      -0.34406002       0.26833987       0.18368824       0.59469283
C        9.07135777       2.48483796     -12.19176246      -0.25194527      -0.03595138      -0.24403673      -0.55897066       0.19428714       1.74538922
H        7.98617073       2.55852956     -11.97087674       0.35746933       0.10264621       0.20295368       0.46263253       0.01926520      -0.57082315
F        8.94921542       1.20797037     -10.18114080       0.77525000       0.18340900      -0.89651653      -0.59662316       0.11791502       0.80163394
Cl      10.96149824       0.01231131     -13.94337064       1.65353840       0.48261721      -1.55944118       0.27190190      -0.15864608      -0.51846623
H        9.19840777       0.35432628     -12.02611087      -0.27032980      -0.05158199       0.17948476      -0.02238937      -0.41898108      -0.16056319
H       10.60050315       1.18896403     -11.30759619       0.13264679      -0.16420421      -0.03604614       0.14069825      -0.04925044      -0.47036693
H        9.32047128       2.39612405     -13.21509429       0.11209742      -0.15602478      -0.23011774       0.04133200       0.13778017      -1.24208139
H        9.55270233       3.35722833     -11.73608270      -0.00669244       0.15028674      -0.10509093      -0.00692135      -0.02605818      -0.17941509
9
Properties=species:S:1:pos:R:3:momenta:R:3:forces:R:3 R1=H R2=H R3=CH3 R4=CH3 leaving_group=Cl nucleophile=Cl rxn=sn2 config=rcc label=H_H_CH3_CH3_Cl_Cl_sn2_rcc conformation=0 reactant_id=H_H_CH3_CH3_Cl_none_-_r product_id=H_H_CH3_CH3_none_Cl_sn2_pc mp2_author_energy=-29302.391748605172 mp2_my_energy=0 hash=59123 address=T id=71 energy=-17371.968562016325 pbc="F F F"
C       10.19630744       1.19635421     -12.48909192      -0.11364842       0.20431688      -0.12283138       0.00149033      -0.24689680       0.07613695
C        9.54276662       2.37204718     -13.16181594       0.38195667      -0.16902082      -0.19226575      -1.62595085       0.39142213       1.60686205
H        8.42912714       2.34146774     -12.96795956      -0.10998995       0.11098841       0.05820082       1.06669387      -0.31879597      -0.42255064
F        9.77201231       1.10029219     -11.09650731       0.40326078       0.10967201      -0.40326911      -0.68981706       0.20662556       0.72260193
Cl      11.87313944       0.30860824     -14.95209398       1.77722468       0.30777193      -2.07343498       0.15792415      -0.07138894      -0.32311811
H        9.85800158       0.27263392     -12.98015925      -0.05838410      -0.10480956       0.08081572       0.31358981       0.33854993       0.23655887
H       11.27604526       1.20783025     -12.40126048      -0.00803018      -0.03922422       0.09213543       0.05061787       0.23250210      -0.61002001
H        9.77268155       2.25887425     -14.17469355      -0.16199879       0.05911458      -0.10932486       0.08487403      -0.16700842      -1.82122779
H        9.81689152       3.39577815     -12.89920314       0.15122881      -0.25722661      -0.21444079       0.64057786      -0.36500959       0.53475674
9
Properties=species:S:1:pos:R:3:momenta:R:3:forces:R:3 R1=H R2=H R3=CH3 R4=CH3 leaving_group=Cl nucleophile=Cl rxn=sn2 config=rcc label=H_H_CH3_CH3_Cl_Cl_sn2_rcc conformation=0 reactant_id=H_H_CH3_CH3_Cl_none_-_r product_id=H_H_CH3_CH3_none_Cl_sn2_pc mp2_author_energy=-29302.391748605172 mp2_my_energy=0 hash=59123 address=T id=71 energy=-17371.90296110072 pbc="F F F"
C       10.75049014       1.08144584     -13.41113975       0.41260947      -0.54567584      -0.37697270       1.28436915       0.11011129       0.90743631
C        9.98123273       2.20419329     -14.03234340      -0.09969554       0.04595013      -0.23385662       0.81376832       1.66760233       2.18910506
H        8.94625582       2.18756855     -13.69300349       0.10641399       0.00306354      -0.17143514      -0.14759935       0.02128562      -0.16678793
F       10.53259144       1.06230348     -11.95767510       0.19074379       0.42780387      -0.89065586      -0.98533489      -0.10871312       0.15277230
Cl      12.69019638       0.60259092     -15.85161678       1.81849750       0.55690437      -2.15869724      -0.04512157      -0.01078338      -0.12751695
H       10.56609204       0.07537004     -13.79534041       0.12170039      -0.07971063       0.10528076      -0.24507593       0.28977069       0.07679101
H       11.80844042       1.27504926     -13.39578897       0.07601604      -0.06110848       0.12100853       0.29865831      -0.11714473      -0.87145265