9
Properties=species:S:1:pos:R:3:momenta:R:3:forces:R:3 R1=H R2=H R3=CH3 R4=CH3 leaving_group=Cl nucleophile=Cl rxn=sn2 config=rcc label=H_H_CH3_CH3_Cl_Cl_sn2_rcc conformation=0 reactant_id=H_H_CH3_CH3_Cl_none_-_r product_id=H_H_CH3_CH3_none_Cl_sn2_pc mp2_author_energy=-29302.391748605172 mp2_my_energy=0 hash=59123 address=T id=71 energy=-17370.412368016237 pbc="F F F"
C        0.12542541       0.11270554      -0.00029240       0.31646996       0.17154362      -0.27054265      -0.09214561       1.11788396      -0.00082481
C        1.62503867       0.00847468       0.00156754      -0.38239219      -0.79172574      -0.00755148      -0.06338950      -0.85342640       0.00215309
H        1.99473018      -0.50605055       0.89354482      -0.11734850       0.11660134       0.01190471       0.00320508       0.00300841       0.00517082
F        0.89788639       2.64149152      -0.00442372       0.44692054       0.41580545      -0.83901331      -0.23271315      -0.10403772      -0.00076135
Cl      -0.69504884      -1.53494042       0.00509220       1.41514930       1.23348740       1.07578431       0.38207948      -0.16174994      -0.00050876
H       -0.22306082       0.64592326      -0.87549887      -0.10385665      -0.17515534       0.09996483      -0.00302890      -0.00293595      -0.00472561
H       -0.22431889       0.65275656       0.87018381       0.21401545       0.25290846       0.11677744      -0.00396382      -0.00350204       0.00469305
H        1.88822962       1.08069343      -0.00059746      -0.06527400       0.14066866       0.21472136       0.00778691       0.00253743      -0.00033365
H        1.99700981      -0.51031959      -0.88698835      -0.02631142       0.13649599       0.09792476       0.00216950       0.00222225      -0.00486279
9
Properties=species:S:1:pos:R:3:momenta:R:3:forces:R:3 R1=H R2=H R3=CH3 R4=CH3 leaving_group=Cl nucleophile=Cl rxn=sn2 config=rcc label=H_H_CH3_CH3_Cl_Cl_sn2_rcc conformation=0 reactant_id=H_H_CH3_CH3_Cl_none_-_r product_id=H_H_CH3_CH3_none_Cl_sn2_pc mp2_author_energy=-29302.391748605172 mp2_my_energy=0 hash=59123 address=T id=71 energy=-17370.299733656728 pbc="F F F"
C        0.84370831       0.68806841       0.12215307       0.56223885      -0.35038220       0.57249914       0.24061720      -0.79012977      -1.12702383
C        2.33556268       0.53219118       0.31807217       0.16635768       1.11564481      -0.47080925      -0.62253882       0.58230911      -0.56453383
H        2.64715586       0.54427068       1.36057686       0.16360707       0.26217527       0.12955345       0.06523887       0.20985693       0.07667953
F        1.53361479       2.81971303      -1.29201080       0.64988937      -0.41506774      -0.81180428      -0.03976960      -0.64615341       0.38996234
Cl      -0.08238332      -0.71271062       0.98622670       0.41083298       1.84717783       1.36470664       0.59065713       0.32221358      -0.47062352
H        0.67059062       0.70795253      -0.97570501       0.04236059      -0.04090322      -0.07636288      -0.37257237      -0.05133223       1.04550828
H        0.46511459       1.56268402       0.58264330       0.09059459      -0.03679157       0.19918356      -0.24621759       0.85352859       0.13115870
H        2.56855011       1.44857442      -0.29159680       0.01098554      -0.09924305      -0.11754430       0.42494353      -0.22245076       0.56722680
H        2.73347051      -0.34946943      -0.17619765       0.49788559       0.01138407      -0.02512418      -0.04035836      -0.25784204      -0.04835447
9
Properties=species:S:1:pos:R:3:momenta:R:3:forces:R:3 R1=H R2=H R3=CH3 R4=CH3 leaving_group=Cl nucleophile=Cl rxn=sn2 config=rcc label=H_H_CH3_CH3_Cl_Cl_sn2_rcc conformation=0 reactant_id=H_H_CH3_CH3_Cl_none_-_r product_id=H_H_CH3_CH3_none_Cl_sn2_pc mp2_author_energy=-29302.391748605172 mp2_my_energy=0 hash=59123 address=T id=71 energy=-17370.286112809397 pbc="F F F"
C        1.48530908       1.27576687       0.23567280       0.82950163       0.06228927       0.44221469      -1.19088706       0.89736550      -0.46612929
C        2.92145864       1.43010453       0.51949196       0.14440833       0.31010896      -0.16912778       0.92033859      -0.19361965       0.35537237
H        3.11613528       2.23812115       1.26287709       0.10821775       0.04220688      -0.15698333      -0.16829254      -0.73033382      -0.28458643
F        2.13220153       2.14977806      -2.19244147       0.18168779      -0.48596694      -0.52695800      -0.24817839      -0.39620859       1.14143827
Cl       0.86878959       0.60955147       1.86513690       0.24467812       1.50477189       1.25981211      -0.49622288      -0.06019441      -0.34895890
H        1.21794437       0.62644878      -0.59994668       0.06150118      -0.00782888      -0.19723645       0.30394506      -0.07666604       0.40822608
H        0.97856949       2.23466818       0.05132053       0.18786454      -0.13919016       0.06665513       0.27114841      -0.46440457       0.12446141
H        3.25530132       1.76665575      -0.45024936       0.19413355       0.32826744      -0.05330866       0.61522445      -0.05158248      -0.54935035
H        3.33360756       0.44020230       0.85831760       0.00984840       0.11978556      -0.08719706      -0.00707565       1.07564407      -0.38047314
9
Properties=species:S:1:pos:R:3:momenta:R:3:forces:R:3 R1=H R2=H R3=CH3 R4=CH3 leaving_group=Cl nucleophile=Cl rxn=sn2 config=rcc label=H_H_CH3_CH3_Cl_Cl_sn2_rcc conformation=0 reactant_id=H_H_CH3_CH3_Cl_none_-_r product_id=H_H_CH3_CH3_none_Cl_sn2_pc mp2_author_energy=-29302.391748605172 mp2_my_energy=0 hash=59123 address=T id=71 energy=-17370.233579685555 pbc="F F F"
C        2.21725411       1.72042472       0.47977184      -0.60052058      -0.61858951      -0.83446229      -1.57410930       1.24077600      -1.08956690
C        3.53665128       2.37965724       0.33047554       0.08973766       0.95246832       0.52987387      -0.50616172       0.31623154      -2.54587448
H        3.55481612       3.29738973       0.86418482      -0.02918020       0.06237079       0.19004308       0.20633994       1.18770634       0.21623479
F        2.44879406       1.20220919      -2.00922348       0.23660418      -0.74454364       0.76065946       0.09777401       0.01248956      -0.06444157
Cl       1.70993672       1.93612218       2.21805138       2.57680984       2.72107158      -0.05179465      -0.16289480      -0.06720693       0.93002795
H        2.25406722       0.69602833       0.24759586       0.03010866      -0.09252618       0.03095320      -0.09071533      -1.12979409      -0.31068580
H        1.42550530       2.20299297      -0.16073736      -0.05383241       0.04904560       0.04510865       1.06737972      -0.65861087       0.77868685
H        3.60923733       2.44737116      -0.80948617       0.24674084      -0.07080361       0.01303137      -0.11507128       0.14296125       1.33317600
H        4.34675070       1.78267691       0.62777354       0.12651493       0.06045930       0.08920069       1.07745876      -1.04455281       0.75244316
9
Properties=species:S:1:pos:R:3:momenta:R:3:forces:R:3 R1=H R2=H R3=CH3 R4=CH3 leaving_group=Cl nucleophile=Cl rxn=sn2 config=rcc label=H_H_CH3_CH3_Cl_Cl_sn2_rcc conformation=0 reactant_id=H_H_CH3_CH3_Cl_none_-_r product_id=H_H_CH3_CH3_none_Cl_sn2_pc mp2_author_energy=-29302.391748605172 mp2_my_energy=0 hash=59123 address=T id=71 energy=-17370.297641839254 pbc="F F F"
C        2.88448312       2.20573242       0.70673914       0.25519204       0.37776511       0.07446944      -0.89701783      -0.29952993      -1.20040702
C        3.82353399       2.94766768      -0.22005734       0.46400004       0.40304720       0.10507874      -0.21745632       1.34806874       2.02149847
H        3.42153726       3.94549356      -0.43036802      -0.15601890      -0.14628399      -0.08353195       0.06036412      -0.04727490      -0.16328693
F        2.87193233       0.55333056      -1.16865954       0.29385955      -0.17413552       1.55049426      -0.00414509       0.85565368       0.98634332
Cl       2.61537346       3.19757162       2.34125576       1.93291051       1.42021269      -0.81318586       0.49961199       0.00804138      -0.66608812
H        3.32344030       1.28564664       1.01955522       0.00324678       0.21934600       0.04079784      -0.27351899      -0.62033114       0.05235623
H        1.86429861       2.15405591       0.30157733      -0.00106719       0.07643624      -0.00552640       0.74602439      -0.46065981       0.19448196
H        3.79834019       2.29681400      -1.07270236       0.02294349      -0.12503677      -0.23176695       0.34736451      -0.53336541      -0.59645740
H        4.79328967       3.09121547       0.30082617      -0.25572942       0.21133292       0.11703700      -0.26122679      -0.25060261      -0.62844050
9
Properties=species:S:1:pos:R:3:momenta:R:3:forces:R:3 R1=H R2=H R3=CH3 R4=CH3 leaving_group=Cl nucleophile=Cl rxn=sn2 config=rcc label=H_H_CH3_CH3_Cl_Cl_sn2_rcc conformation=0 reactant_id=H_H_CH3_CH3_Cl_none_-_r product_id=H_H_CH3_CH3_none_Cl_sn2_pc mp2_author_energy=-29302.391748605172 mp2_my_energy=0 hash=59123 address=T id=71 energy=-17370.19575271668 pbc="F F F"
C        3.76316706       2.88891162       1.14106761       0.22509312       0.21963024       0.02235290      -0.53313928       2.01914601       0.23146446
C        3.63324670       3.04414452      -0.37128020      -0.41986349      -0.97927390       0.16506636       0.00652872       1.89356960       1.20138019
H        2.58331573       3.28305792      -0.61780580      -0.15537909       0.04251431      -0.05145629       0.55755730      -0.09520282      -0.02212816
F        3.63099696       0.61889558       0.59912674       0.87020068       0.00466103       1.57011671      -0.21092928      -2.51466355      -0.38583816
Cl       3.99408812       4.67281956       1.87599841       2.72299301       2.92454932      -0.47940719      -0.14339320      -0.24876629      -0.24825002
H        4.60912431       2.30009119       1.47069722      -0.04376447       0.25010434      -0.08602090      -0.18011528       0.26149366      -0.00528001
H        2.80649498       2.54139677       1.53565971      -0.09492341       0.13508215       0.02587465       0.60179885       0.00113699       0.25361348
H        3.89621792       2.06562059      -0.66703700       0.25065904       0.29404542       0.00768341       0.07858855      -1.13159796      -0.79390539
H        4.31197030       3.83185358      -0.72324570       0.07627073       0.14225244      -0.16350632      -0.17689638      -0.18511565      -0.23105640
9
Properties=species:S:1:pos:R:3:momenta:R:3:forces:R:3 R1=H R2=H R3=CH3 R4=CH3 leaving_group=Cl nucleophile=Cl rxn=sn2 config=rcc label=H_H_CH3_CH3_Cl_Cl_sn2_rcc conformation=0 reactant_id=H_H_CH3_CH3_Cl_none_-_r product_id=H_H_CH3_CH3_none_Cl_sn2_pc mp2_author_energy=-29302.391748605172 mp2_my_energy=0 hash=59123 address=T id=71 energy=-17370.205912015987 pbc="F F F"
C        4.69597968       3.72098842       1.55240066       0.52838913       0.77420505       0.57074739      -0.01602897      -0.75822851      -0.80781454
C        3.62890058       3.37427590       0.55125185       0.11814776      -0.39756489       0.35967080      -0.86941900      -1.59619489       1.35129136
H        2.72971577       3.88615627       0.84067239      -0.19330432      -0.08168651       0.00444825      -0.68389793       0.22830958       0.17335375
F        4.52997945       1.56891669       2.41976447       0.75438700       0.21325960       1.48702301      -0.07458716       0.99060888      -0.40419738
Cl       5.20173082       5.50326222       0.93973970       2.07883151       1.43696281      -1.62577290       0.07038081       0.56170803       0.08299427
H        5.59265841       3.17693800       1.41717103      -0.17005085       0.10948879      -0.01845670       0.58173383      -0.42559635       0.35970819
H        4.37761524       3.89456382       2.55449563      -0.04080055       0.01932852       0.05095790      -0.03669707      -0.26228024       0.42901624
H        3.43747263       2.26975300       0.61622317      -0.19499662       0.14950720      -0.01238159       0.39305434       1.05927602       0.09168635
H        3.82864827       3.69905049      -0.43410424      -0.19046218       0.15482576      -0.02384105       0.63546114       0.20239749      -1.27603824
9
Properties=species:S:1:pos:R:3:momenta:R:3:forces:R:3 R1=H R2=H R3=CH3 R4=CH3 leaving_group=Cl nucleophile=Cl rxn=sn2 config=rcc label=H_H_CH3_CH3_Cl_Cl_sn2_rcc conformation=0 reactant_id=H_H_CH3_CH3_Cl_none_-_r product_id=H_H_CH3_CH3_none_Cl_sn2_pc mp2_author_energy=-29302.391748605172 mp2_my_energy=0 hash=59123 address=T id=71 energy=-17370.16434115287 pbc="F F F"
C        5.50134904       4.45720302       1.85969620       0.50987252       0.27076579      -0.07416403      -1.74751892      -0.00739940       0.89541017
C        4.03695472       4.19267252       1.55676449       0.23051413       0.48010453       0.32701885      -0.11131341      -1.43744757       0.91078050
H        3.42813756       5.08406808       1.55741450       0.14272480       0.18589714      -0.11787604      -0.00203450       0.45710106       0.17579370
F        5.41544532       3.06268748       3.62815413       0.75113500       1.30767771       0.55263487      -0.08800147       1.01647654      -1.09377066
Cl       5.93783555       5.56416005       0.23748380       0.26946917      -0.48355917      -0.07352564       0.25402726       0.17017932       0.11446736
H        6.17160217       3.66375666       1.83436379      -0.18101221      -0.02494760       0.01251465       0.77187711      -1.04281964      -0.28782331
H        5.66423572       5.11492382       2.68180714       0.08491187      -0.06925509      -0.00891829       0.28028687       0.27793739       0.33462603
H        3.62045183       3.43818682       2.26785436      -0.04254061       0.01380344      -0.00103323       0.68521509       0.84181645      -0.23162062
H        3.95003818       3.76595190       0.57713756       0.15256078       0.01487532      -0.05180156      -0.04253805      -0.27584416      -0.81786317
9
Properties=species:S:1:pos:R:3:momenta:R:3:forces:R:3 R1=H R2=H R3=CH3 R4=CH3 leaving_group=Cl nucleophile=Cl rxn=sn2 config=rcc label=H_H_CH3_CH3_Cl_Cl_sn2_rcc conformation=0 reactant_id=H_H_CH3_CH3_Cl_none_-_r product_id=H_H_CH3_CH3_none_Cl_sn2_pc mp2_author_energy=-29302.391748605172 mp2_my_energy=0 hash=59123 address=T id=71 energy=-17370.20586648447 pbc="F F F"
C        6.31853417       5.23346728       2.15976293       0.33513160      -0.32831127      -0.21300563      -0.23240040      -0.27641229      -0.76297740
C        4.84416245       5.39243350       2.23842676       0.30336439       0.40544368       0.24673585      -0.20894435       1.18379585       1.52111285
H        4.56686592       6.41253045       1.95369367      -0.00365287       0.05872899      -0.13276991      -0.08391818      -0.10769576      -0.18689569
F        6.49245058       5.09498806       4.26849876       1.02796605       1.48547854       0.88873989      -0.02813629       0.09463650       0.22208122
Cl       6.45883974       5.21416146       0.00941072       0.51168062      -0.19773535      -0.27315778       0.18153188       0.12789898       0.12694471
H        6.67918144       4.26511541       2.31006402      -0.09162381       0.10721236      -0.15090582       0.57074826      -1.01584913       0.07380041
H        7.01276038       6.00355774       2.36893888      -0.20770422      -0.16133643       0.19738021       0.07016560       0.56144588       0.02207706
H        4.61945342       5.29018607       3.33143320      -0.12881678       0.14378975       0.00843946       0.04846217      -0.28265794      -1.07887350
H        4.34799602       4.69503979       1.57980611       0.08849172       0.10889030      -0.03099548      -0.31750870      -0.28516209       0.06273033
9
Properties=species:S:1:pos:R:3:momenta:R:3:forces:R:3 R1=H R2=H R3=CH3 R4=CH3 leaving_group=Cl nucleophile=Cl rxn=sn2 config=rcc label=H_H_CH3_CH3_Cl_Cl_sn2_rcc conformation=0 reactant_id=H_H_CH3_CH3_Cl_none_-_r product_id=H_H_CH3_CH3_none_Cl_sn2_pc mp2_author_energy=-29302.391748605172 mp2_my_energy=0 hash=59123 address=T id=71 energy=-17370.219059326228 pbc="F F F"
C        7.19295389       6.12955211       2.40725787       1.12948709      -0.29959966       0.86940985       0.88955614       0.19673974      -0.92100675
C        5.81241545       6.69924497       2.34839257      -0.04101879       0.32761802      -0.20597167      -0.12369539      -1.18048211       0.47349973
H        5.60029059       7.29244211       1.44884325       0.11821791       0.17787320       0.01435717       0.18045743      -0.06243095       0.43788196
F        7.71389547       7.09692655       4.09390301       1.03195871       1.86612950      -0.92232576      -0.09968322       0.00436914      -0.01587848
Cl       6.84435436       4.82665246       0.50099898       0.54221746       0.10481683       1.14653514       0.15315081       0.04635442      -0.18009494
H        7.42442120       5.17024850       2.85562703       0.01273959       0.13599253      -0.11150670      -0.25904666       0.54180560       0.10774544
H        7.99981957       6.67375857       1.91622794      -0.20911668      -0.14361980       0.18962660      -0.27185460      -0.48996470       0.25325156
H        5.68382293       7.19020762       3.29488254       0.14899099       0.03111457      -0.23848182      -0.07668569       0.86243936       0.15980713
H        5.15184091       5.83511228       2.37823929      -0.00269486       0.21393104       0.06272319      -0.39219881       0.08116951      -0.31520565
9
Properties=species:S:1:pos:R:3:momenta:R:3:forces:R:3 R1=H R2=H R3=CH3 R4=CH3 leaving_group=Cl nucleophile=Cl rxn=sn2 config=rcc label=H_H_CH3_CH3_Cl_Cl_sn2_rcc conformation=0 reactant_id=H_H_CH3_CH3_Cl_none_-_r product_id=H_H_CH3_CH3_none_Cl_sn2_pc mp2_author_energy=-29302.391748605172 mp2_my_energy=0 hash=59123 address=T id=71 energy=-17370.422047430042 pbc="F F F"
C        8.04062486       7.02017672       2.41897560       0.32021132      -0.71573771      -0.32647480      -0.93379767      -0.13431847       0.09683829
C        6.70881761       7.66414470       2.08899790       0.15551593       0.56579563       0.16882179       0.13065670      -1.59334602      -0.94570856
H        6.56958789       7.67100022       1.00233527       0.10366463      -0.14093198      -0.10863805      -0.00286757      -0.17164161       0.09737309
F        8.86128764       8.53327169       3.24417217       0.67088432       1.15145787      -0.82972839      -0.10659503       0.20368669      -0.09812713
Cl       7.27416666       4.84748817       1.58611895       0.64114455       0.71231076       1.41386208       0.08001532       0.12648327      -0.03801238
H        8.16691406       6.45786140       3.31086850      -0.09338253      -0.02438493       0.01483433      -0.00061814      -0.20459909       0.31183111
H        8.79213147       6.92322722       1.67435779       0.07134576       0.06009625       0.24554341       0.25399700      -0.03849549      -0.31891206
H        6.73781094       8.66068391       2.39386148       0.03955665       0.05995979       0.08941691       0.12270477       1.75815144       0.84649434
H        5.83846589       7.14323093       2.51094052       0.08814004       0.09703312      -0.07938669       0.45650462       0.05407928       0.04822329
9
Properties=species:S:1:pos:R:3:momenta:R:3:forces:R:3 R1=H R2=H R3=CH3 R4=CH3 leaving_group=Cl nucleophile=Cl rxn=sn2 config=rcc label=H_H_CH3_CH3_Cl_Cl_sn2_rcc conformation=0 reactant_id=H_H_CH3_CH3_Cl_none_-_r product_id=H_H_CH3_CH3_none_Cl_sn2_pc mp2_author_energy=-29302.391748605172 mp2_my_energy=0 hash=59123 address=T id=71 energy=-17370.438902008977 pbc="F F F"
C        8.73578440       7.56299674       2.33510339       0.35036729       0.68991029       0.27504377      -1.10499403      -0.10383418       0.68572662
C        7.48422613       8.12166516       1.67550810       0.55857715       0.03872344      -0.16439273      -0.23113810      -0.18911237       0.95302283
H        7.13497835       7.54788997       0.82296616      -0.14339449       0.10329739      -0.15559807       0.13877890      -0.22797848      -0.03013963
F        9.65003055       9.23112869       2.31226254      -0.05043900      -0.62515003      -0.84007289       0.47735692       0.54211596      -0.18891830
Cl       7.75514467       5.39249768       2.72849903       1.23562387       1.56021383       1.72269410      -0.10546579      -0.04653440      -0.04248138
H        8.81647783       7.60853464       3.42330650       0.02394914      -0.11197042       0.09573905       0.00515859      -0.31379963      -0.71243698
H        9.42472771       6.97642864       1.76498657      -0.00154628      -0.03165709      -0.08020044       0.28158664       0.08535915      -0.01476223
H        7.73195292       9.13050105       1.38771127       0.12361626       0.32136845      -0.15612148       0.07326626       0.44501829      -0.28850763
H        6.65214990       8.17364915       2.40759956       0.11259081       0.00852348      -0.04631722       0.46545061      -0.19123434      -0.36150330
9
Properties=species:S:1:pos:R:3:momenta:R:3:forces:R:3 R1=H R2=H R3=CH3 R4=CH3 leaving_group=Cl nucleophile=Cl rxn=sn2 config=rcc label=H_H_CH3_CH3_Cl_Cl_sn2_rcc conformation=0 reactant_id=H_H_CH3_CH3_Cl_none_-_r product_id=H_H_CH3_CH3_none_Cl_sn2_pc mp2_author_energy=-29302.391748605172 mp2_my_energy=0 hash=59123 address=T id=71 energy=-17370.299400883985 pbc="F F F"
C        9.54583584       8.12872442       2.35043784       0.03973584      -0.22033609      -0.48779496       0.83190730       0.82766571       0.19237344
C        8.36701684       8.10841172       1.39183130       0.30331057       0.00390548       0.50577771      -0.14624578       0.22588694       0.72978089
H        8.20004097       7.06116796       1.17837552       0.19702923      -0.10745957       0.05814016      -0.34583843      -0.16573212      -0.38355955
F       10.40303504       9.45256548       1.23807508       0.84837681       0.19997869      -0.72443091       0.34335552      -0.31072146       0.20904565
Cl       8.52927348       6.71823496       3.96791759       1.51502184       2.74837784       1.97899754      -0.27769161      -0.22207146       0.18594350
H        9.60820389       8.86916608       3.16930223      -0.06348464      -0.11671147      -0.18345202      -0.14714726      -0.85723388      -0.81812861
H       10.26736728       7.28457228       2.35482755       0.24852954       0.11772111       0.05745413      -0.63808012       1.25151811      -0.33506274
H        8.63611092       8.69301155       0.47364316       0.12355581       0.05814101      -0.14963299      -0.40928607      -0.53044282       0.95651481
H        7.45582716       8.49445612       1.92457941      -0.08578643       0.08030310      -0.13419395       0.78902645      -0.21886901      -0.73690740
9
Properties=species:S:1:pos:R:3:momenta:R:3:forces:R:3 R1=H R2=H R3=CH3 R4=CH3 leaving_group=Cl nucleophile=Cl rxn=sn2 config=rcc label=H_H_CH3_CH3_Cl_Cl_sn2_rcc conformation=0 reactant_id=H_H_CH3_CH3_Cl_none_-_r product_id=H_H_CH3_CH3_none_Cl_sn2_pc mp2_author_energy=-29302.391748605172 mp2_my_energy=0 hash=59123 address=T id=71 energy=-17370.364291361137 pbc="F F F"
C       10.29889971       8.75235641       2.38743862      -0.21905641       0.14058577      -0.20280856       0.33095975       0.76872089       0.63921769
C        9.30883008       7.75314213       1.88657708       0.73789749      -0.40217386       0.87714370      -1.12202265      -0.83977882      -0.54143230
H        9.55666609       6.73634143       2.25303852       0.05261501       0.03897129       0.01794479      -0.27900534       0.58526479      -0.06631684
F       10.93174919       9.10563772       0.62175002       0.54434262       0.22546467      -0.87142383       0.48545818       0.20649036      -0.40626593
Cl       9.52411814       8.54812145       4.66160236       1.09673665       2.41161303       0.79997849       0.07865665      -0.00795792      -0.03573005
H       10.00452441       9.78946878       2.46835628       0.26367948      -0.21000755      -0.22066055       0.01072659      -0.28366617       0.13128492
H       11.29387812       8.51600666       2.80442547      -0.11618938      -0.13092570       0.03056860      -1.12144508      -0.17361496      -0.48349567
H        9.38614122       7.75626213       0.77629738       0.10542648      -0.01472604       0.14094508      -0.01307065      -0.08480775       0.70115230
H        8.22116498       7.98435739       2.13753054       0.07440826       0.18666309       0.17644142       1.62974254      -0.17065041       0.06158589
9
Properties=species:S:1:pos:R:3:momenta:R:3:forces:R:3 R1=H R2=H R3=CH3 R4=CH3 leaving_group=Cl nucleophile=Cl rxn=sn2 config=rcc label=H_H_CH3_CH3_Cl_Cl_sn2_rcc conformation=0 reactant_id=H_H_CH3_CH3_Cl_none_-_r product_id=H_H_CH3_CH3_none_Cl_sn2_pc mp2_author_energy=-29302.391748605172 mp2_my_energy=0 hash=59123 address=T id=71 energy=-17370.382705026233 pbc="F F F"
C       10.86960392       9.20648865       2.48087697       1.09120872      -0.58117767      -0.83470253       2.58043311      -0.22152850      -0.03161046
C       10.54411473       7.90413834       3.09112415       0.60895537       0.49339939       0.36550589      -0.48827675      -1.08055747       1.22249555
H       11.32658937       7.47119680       3.78334660      -0.05848996       0.24810552       0.03120164      -0.74462834       0.88873194      -0.66952724
F       11.18308793       8.55790252       0.69207255      -0.30734400       0.01691563       0.51408947      -0.20478247       0.14016175       0.66056867
Cl      10.62123825      10.35069264       4.65353496       1.04167801       2.09103322       0.00527279       0.06149281      -0.05871726      -0.24499795
H       10.13500432       9.88278161       2.19898319       0.07951782      -0.19679775      -0.04072581      -1.14777141       0.84411973      -0.40040922
H       11.89010662       9.59286773       2.53139586      -0.07951967       0.01851168       0.14470988      -0.63275164      -0.11778906       0.02297631
H       10.39928180       7.18152998       2.29910811      -0.07952974       0.06614174       0.33515539      -0.06934871      -0.12074615      -0.37265534
H        9.59437324       8.01527486       3.65629857       0.14113143      -0.00106723       0.19750352       0.64563341      -0.27367497      -0.18684032
9
Properties=species:S:1:pos:R:3:momenta:R:3:forces:R:3 R1=H R2=H R3=CH3 R4=CH3 leaving_group=Cl nucleophile=Cl rxn=sn2 config=rcc label=H_H_CH3_CH3_Cl_Cl_sn2_rcc conformation=0 reactant_id=H_H_CH3_CH3_Cl_none_-_r product_id=H_H_CH3_CH3_none_Cl_sn2_pc mp2_author_energy=-29302.391748605172 mp2_my_energy=0 hash=59123 address=T id=71 energy=-17370.28075545713 pbc="F F F"
C       11.33601275       9.51930296       2.82568838       0.75204982       0.47466107       0.67818494      -0.92606146       0.56278970      -0.08364053
C       11.76802305       8.70949459       3.98497492       0.42703235       0.42833460       0.19578854       1.36280317       1.55067987      -0.07002717
H       12.75863875       9.11982611       4.22337629       0.00360948      -0.07363811      -0.04716110      -0.06102758      -0.66528975       0.28355674
F       11.22026577       8.13285576       1.50233783      -0.11933047      -0.67870771       0.67580215      -0.08321228       0.18772614       0.62865538
Cl      11.59681745      11.60231236       4.20581137       1.20739955       1.60641152      -0.82033667      -0.05573247      -0.06455963      -0.17259007
H       10.34968093       9.91284791       2.88909687      -0.17737991       0.11335697       0.08929665      -0.61173863      -0.00777572      -0.48779986
H       11.96596448      10.07721279       2.17678157       0.09274109       0.01435685       0.12141874       0.58446047       0.01695881       0.06384068
H       11.80482877       7.70548773       3.67133764       0.13937563       0.13002143      -0.00327475       0.03913856      -1.38654140      -0.25105071
H       11.13476148       8.88439172       4.84369083       0.20728426       0.22441017      -0.14367432      -0.24862978      -0.19398801       0.08905554
9
Properties=species:S:1:pos:R:3:momenta:R:3:forces:R:3 R1=H R2=H R3=CH3 R4=CH3 leaving_group=Cl nucleophile=Cl rxn=sn2 config=rcc label=H_H_CH3_CH3_Cl_Cl_sn2_rcc conformation=0 reactant_id=H_H_CH3_CH3_Cl_none_-_r product_id=H_H_CH3_CH3_none_Cl_sn2_pc mp2_author_energy=-29302.391748605172 mp2_my_energy=0 hash=59123 address=T id=71 energy=-17370.317623695035 pbc="F F F"
C       11.83730521       9.98084097       3.38458133       0.06207491       0.27126118       0.28506239      -0.44224688       2.86930205      -0.16215018
C       12.89882649       9.65862177       4.36647797       0.47738633       0.32534020      -0.05435981      -0.58665886      -0.72945636       0.86025413
H       13.85358912      10.10226134       4.17911887       0.15518922      -0.00444489      -0.07060633       0.47577533       0.33578891      -0.39625191
F       11.36338594       8.23449933       2.94971689       0.87047550       1.03410533       1.34748520      -0.58682425      -1.93213388      -0.27534407
Cl      12.46784793      12.40779270       3.52678629       1.01954918       0.61039196      -1.01358768      -0.25825558      -0.27140124       0.01471824
H       10.81573583      10.31216392       3.71551625      -0.13660208       0.04732923       0.13520431       1.51663859      -0.35644821      -0.46332934
H       12.12780826      10.16659625       2.36222477      -0.09381410      -0.20241507      -0.04709275      -0.26528286       0.15305608       0.12160662