9
Properties=species:S:1:pos:R:3:momenta:R:3:forces:R:3 R1=H R2=H R3=CH3 R4=CH3 leaving_group=Cl nucleophile=Cl rxn=sn2 config=rcc label=H_H_CH3_CH3_Cl_Cl_sn2_rcc conformation=0 reactant_id=H_H_CH3_CH3_Cl_none_-_r product_id=H_H_CH3_CH3_none_Cl_sn2_pc mp2_author_energy=-29302.391748605172 mp2_my_energy=0 hash=59123 address=T id=71 energy=-17370.412368016237 pbc="F F F"
C        0.12542541       0.11270554      -0.00029240      -0.87315055       0.29939254       1.24057745      -0.09214561       1.11788396      -0.00082481
C        1.62503867       0.00847468       0.00156754       0.04320147      -0.51186368       0.78928659      -0.06338950      -0.85342640       0.00215309
H        1.99473018      -0.50605055       0.89354482       0.16348963       0.04983505      -0.15037527       0.00320508       0.00300841       0.00517082
F        0.89788639       2.64149152      -0.00442372       0.86169704       0.73489112      -0.51952666      -0.23271315      -0.10403772      -0.00076135
Cl      -0.69504884      -1.53494042       0.00509220       0.14036418       1.22837338      -1.36434736       0.38207948      -0.16174994      -0.00050876
H       -0.22306082       0.64592326      -0.87549887      -0.27902492       0.20259107       0.21577857      -0.00302890      -0.00293595      -0.00472561
H       -0.22431889       0.65275656       0.87018381       0.35466890       0.40064129      -0.06842489      -0.00396382      -0.00350204       0.00469305
H        1.88822962       1.08069343      -0.00059746       0.08235970      -0.11491540       0.06783949       0.00778691       0.00253743      -0.00033365
H        1.99700981      -0.51031959      -0.88698835       0.12586794       0.15134818       0.09315303       0.00216950       0.00222225      -0.00486279
9
Properties=species:S:1:pos:R:3:momenta:R:3:forces:R:3 R1=H R2=H R3=CH3 R4=CH3 leaving_group=Cl nucleophile=Cl rxn=sn2 config=rcc label=H_H_CH3_CH3_Cl_Cl_sn2_rcc conformation=0 reactant_id=H_H_CH3_CH3_Cl_none_-_r product_id=H_H_CH3_CH3_none_Cl_sn2_pc mp2_author_energy=-29302.391748605172 mp2_my_energy=0 hash=59123 address=T id=71 energy=-17370.125337981957 pbc="F F F"
C        0.35799787       0.79977762       0.20523009       0.45405832      -0.03810044       0.18813657       1.13240141       3.16185193      -0.37811552
C        1.57997612       0.18416643       0.77116257       0.07584441       1.22053711      -0.23433409       0.70298951      -0.31905530       1.32462828
H        1.43171729      -0.41694179       1.69556490      -0.03214242       0.14391044       0.16038831      -0.02226334       0.46572257      -0.54937073
F        1.78015318       3.08907767       0.13844998       0.60791972      -0.87452087       0.54129613      -1.29203326      -2.48459127       0.27475991
Cl      -0.83306894      -0.45727948      -0.27878093      -0.42280797       2.48013280      -0.30680152      -0.33982760      -1.00533424      -0.37499529
H        0.73262552       1.43716511      -0.57084496       0.24989415      -0.07894396      -0.07860480      -0.38790000       0.23138410      -0.84620786
H       -0.25161071       1.45051891       0.81633923      -0.13843138      -0.04778513      -0.10300234       0.74641989       0.05949646       0.53719512
H        2.19898618       1.07830955       0.95155051      -0.10674999       0.21784703       0.19000301      -0.22176457      -0.00279544       0.19173272
H        2.13078503      -0.42625176       0.05072620       0.07641901      -0.01343410       0.01779737      -0.31802204      -0.10667882      -0.17962662
9
Properties=species:S:1:pos:R:3:momenta:R:3:forces:R:3 R1=H R2=H R3=CH3 R4=CH3 leaving_group=Cl nucleophile=Cl rxn=sn2 config=rcc label=H_H_CH3_CH3_Cl_Cl_sn2_rcc conformation=0 reactant_id=H_H_CH3_CH3_Cl_none_-_r product_id=H_H_CH3_CH3_none_Cl_sn2_pc mp2_author_energy=-29302.391748605172 mp2_my_energy=0 hash=59123 address=T id=71 energy=-17370.22359660816 pbc="F F F"
C        0.74375545       1.94151500       0.10300557       0.88505945       0.33698085      -0.68430826       0.22081243       0.35082408      -0.87109688
C        1.06073677       1.15643039       1.30574780      -0.19484040       0.05851698       0.86891073       1.04318587      -0.33591167       0.85015177
H        0.28780565       1.30262522       2.06637087       0.02111615       0.05870187      -0.04537995       0.08913355       0.09620616       0.03523295
F        3.05853534       3.12006785       0.71423324       0.91019097       0.45932065       0.40540992      -1.34853537      -0.61856180      -0.30516912
Cl      -0.84857637       1.03565001      -0.47900544      -0.97508617       1.61809017      -0.35955417       0.19325375       0.87421435       0.00934670
H        1.38643593       1.83811811      -0.77052645       0.31528120      -0.02662266       0.08732428       0.17690168       0.13236644       0.59241482
H        0.57342210       2.99066106       0.34149912      -0.19959751       0.05564826       0.09943412      -0.20863970      -0.15849888      -0.35456257
H        2.04707091       1.60988946       1.62381232       0.00142864      -0.14987307      -0.09220835      -0.66557465      -0.62143394      -0.23611512
H        1.05376302       0.08302740       1.05567169      -0.10423910       0.18647166       0.04388109       0.49946244       0.28079526       0.27979745
9
Properties=species:S:1:pos:R:3:momenta:R:3:forces:R:3 R1=H R2=H R3=CH3 R4=CH3 leaving_group=Cl nucleophile=Cl rxn=sn2 config=rcc label=H_H_CH3_CH3_Cl_Cl_sn2_rcc conformation=0 reactant_id=H_H_CH3_CH3_Cl_none_-_r product_id=H_H_CH3_CH3_none_Cl_sn2_pc mp2_author_energy=-29302.391748605172 mp2_my_energy=0 hash=59123 address=T id=71 energy=-17370.21923392465 pbc="F F F"
C        1.02794917       2.35769593       0.24901370       0.76553812      -0.13596002      -0.38755453      -0.85848770      -1.42318064      -0.33897384
C        0.78998479       2.04213897       1.73202438      -0.56656767       0.67281020      -0.51886465       0.55577399       0.75408953      -1.53940341
H        0.24430170       2.89623705       2.13634101      -0.13450559       0.13031188      -0.24430594      -0.33427509      -0.39145403       0.50199014
F        3.37701210       2.88908002       0.95161707       0.30035200      -0.08562194       0.24386570       1.22805035       0.13692002       0.41135400
Cl      -0.58342254       2.39678356      -0.62477723       0.81806589       2.43106691       0.95027130      -0.82915556      -0.01800560      -0.19534830
H        1.56525993       1.53299357      -0.25017084      -0.24574823      -0.05516656      -0.17637201      -0.00045896       0.80098027       0.40619555
H        1.54454122       3.29665898       0.11058302       0.11872833       0.01387513       0.29221974      -0.03968995      -0.17817059       0.04409567
H        1.84690993       2.15165970       1.93367697      -0.06496980       0.19130351       0.22275496       0.58317866      -0.07951929       0.83096314
H        0.42740314       1.03204213       1.95656206      -0.18584987       0.00869011       0.01300108      -0.30493575       0.39834035      -0.12087296
9
Properties=species:S:1:pos:R:3:momenta:R:3:forces:R:3 R1=H R2=H R3=CH3 R4=CH3 leaving_group=Cl nucleophile=Cl rxn=sn2 config=rcc label=H_H_CH3_CH3_Cl_Cl_sn2_rcc conformation=0 reactant_id=H_H_CH3_CH3_Cl_none_-_r product_id=H_H_CH3_CH3_none_Cl_sn2_pc mp2_author_energy=-29302.391748605172 mp2_my_energy=0 hash=59123 address=T id=71 energy=-17370.21084037468 pbc="F F F"
C        1.31192810       3.27020730       0.40832998       0.74308159       1.42806235       0.19087199      -1.08821593       0.06772057       1.30464304
C        0.86576446       3.42823610       1.87209902       0.02466533       0.89587296       0.35634738       0.39028339      -0.15273595      -0.74388697
H        0.31039864       4.31467448       2.11289200       0.01112569      -0.00849379      -0.01322338      -0.00178145       0.88102450      -0.20617015
F        3.35859923       2.31181599       1.32870858      -1.50096348      -0.45654026      -0.67077907      -0.35500858       0.25622534      -0.05863722
Cl      -0.18446487       3.81609980      -0.70777222       1.60720715       1.67989879       0.20583365       0.28068079      -0.50927962       0.57432370
H        1.63366881       2.24062775       0.28259802       0.22508248       0.07089722       0.21302959       0.10449563       0.38644201      -0.65044827
H        1.98234951       4.04719842       0.14715084       0.05902229       0.01211224      -0.10937719       1.04399038      -0.01564506      -0.24132310
H        1.81903572       3.36158426       2.40958932      -0.21269856      -0.04529852       0.12833398      -0.13308473      -0.11657854      -0.13168022
H        0.21626321       2.62499115       2.16011774      -0.04052362       0.03188634       0.14842206      -0.24135950      -0.79717325       0.15317917
9
Properties=species:S:1:pos:R:3:momenta:R:3:forces:R:3 R1=H R2=H R3=CH3 R4=CH3 leaving_group=Cl nucleophile=Cl rxn=sn2 config=rcc label=H_H_CH3_CH3_Cl_Cl_sn2_rcc conformation=0 reactant_id=H_H_CH3_CH3_Cl_none_-_r product_id=H_H_CH3_CH3_none_Cl_sn2_pc mp2_author_energy=-29302.391748605172 mp2_my_energy=0 hash=59123 address=T id=71 energy=-17370.156330900434 pbc="F F F"
C        1.47789290       4.02616851       0.50109850      -0.44013729       0.90259538       0.28372084      -0.89001060       2.43323601      -0.10494427
C        1.36526897       4.53252613       1.93600322       0.17769816       0.72767425       0.28434130      -0.18530421      -0.59731211      -0.85264334
H        1.63491496       5.56227899       1.91730744       0.21750496      -0.09978992      -0.01853355       0.23946244       1.02186291       0.46271604
F        2.45848078       2.27582497       1.58334368      -0.50503337      -0.11847992      -0.07167821       1.05639472      -1.98035439       0.81462736
Cl       0.62329772       5.41167016      -0.60915515       1.55443405       1.24110802       0.42897445       0.21900838      -0.06563346       0.33620959
H        0.85352238       3.20506102       0.24227164      -0.08784359       0.03473537      -0.15299814       0.27243156      -0.68572691      -0.05886686
H        2.51837694       4.05327944       0.21488430      -0.13555531       0.16931809      -0.04749208      -0.22395259      -0.41750769      -0.53684032
H        2.04718278       3.87905968       2.48386485      -0.04378437      -0.07204365      -0.08439791       0.06385185       0.16203967      -0.08972776
H        0.37853856       4.39507873       2.34691060       0.03377507       0.25231484      -0.24359662      -0.55188155       0.12939597       0.02946954
9
Properties=species:S:1:pos:R:3:momenta:R:3:forces:R:3 R1=H R2=H R3=CH3 R4=CH3 leaving_group=Cl nucleophile=Cl rxn=sn2 config=rcc label=H_H_CH3_CH3_Cl_Cl_sn2_rcc conformation=0 reactant_id=H_H_CH3_CH3_Cl_none_-_r product_id=H_H_CH3_CH3_none_Cl_sn2_pc mp2_author_energy=-29302.391748605172 mp2_my_energy=0 hash=59123 address=T id=71 energy=-17370.21772391457 pbc="F F F"
C        1.45939700       4.89540773       0.60302205       0.94138925       0.03022689      -0.67448633       1.19689393      -0.21570667       1.74539752
C        1.97479259       5.27320835       2.03761235       0.26862046       0.16073196      -0.14533271       0.07632450       0.12040873      -1.70048667
H        3.00151111       5.59819363       1.94839896      -0.19457327       0.13587452      -0.05455303       0.54250793      -0.07397215      -0.05804132
F        1.32877666       2.86588030       1.52381836      -1.42800306      -0.12646448       0.69120531      -0.09872472      -0.10119535      -0.27582693
Cl       1.52180207       6.55582113      -0.39569124       0.70209505       2.46857887       0.09461563      -0.00239834       0.23830982       0.10914340
H        0.42916939       4.61923330       0.58317250       0.03435286       0.08878217       0.07200108      -0.20851645      -0.26687257      -0.21037060
H        2.17411078       4.28192139       0.05463153       0.15497170       0.07262346       0.18897538      -0.63032970       0.02580007       0.26067848
H        1.90398354       4.37038515       2.63313368      -0.04551228      -0.00824732       0.00574133      -0.17167772      -0.00833559      -0.06796462
H        1.47368424       6.13267489       2.44881873       0.26453973      -0.07294340       0.16426677      -0.70407943       0.28156371       0.19747073
9
Properties=species:S:1:pos:R:3:momenta:R:3:forces:R:3 R1=H R2=H R3=CH3 R4=CH3 leaving_group=Cl nucleophile=Cl rxn=sn2 config=rcc label=H_H_CH3_CH3_Cl_Cl_sn2_rcc conformation=0 reactant_id=H_H_CH3_CH3_Cl_none_-_r product_id=H_H_CH3_CH3_none_Cl_sn2_pc mp2_author_energy=-29302.391748605172 mp2_my_energy=0 hash=59123 address=T id=71 energy=-17370.148985975877 pbc="F F F"
C        1.57467287       5.83889637       0.71157774       0.22152286      -0.05638858       0.12553547       0.25280355       0.61027605      -0.91332035
C        2.44910758       5.52404199       1.89839952      -0.31451493      -0.31391233       0.02399865      -0.35759550       0.90597171      -0.05805744
H        3.46221584       5.34120035       1.60492945      -0.16593866       0.02083193      -0.04124666       0.67897474      -0.14420238      -0.30989996
F        0.26669393       4.35485109       1.38146591      -1.01097388       1.10809597       0.08698697      -1.02884918      -1.47325055       0.37498960
Cl       2.41450860       7.47302279      -0.02364591       1.65763445       2.20477638       0.28407783       0.45063589       0.58504300      -0.07329877
H        0.55467574       6.16608912       0.87823966       0.11203825       0.31639497       0.20600439       0.58805681       0.08173864      -0.01847415
H        1.72285630       5.24333424      -0.19051658       0.17427667       0.09750567       0.10489591      -0.33862195      -0.14979116       0.67027198
H        2.01566355       4.68467207       2.38969277       0.12977425      -0.18177093       0.08715590      -0.27271161      -0.66754674       0.13930650
H        2.45941457       6.36501528       2.58435661       0.04653766       0.15427977      -0.46015853       0.02730726       0.25176144       0.18848258
9
Properties=species:S:1:pos:R:3:momenta:R:3:forces:R:3 R1=H R2=H R3=CH3 R4=CH3 leaving_group=Cl nucleophile=Cl rxn=sn2 config=rcc label=H_H_CH3_CH3_Cl_Cl_sn2_rcc conformation=0 reactant_id=H_H_CH3_CH3_Cl_none_-_r product_id=H_H_CH3_CH3_none_Cl_sn2_pc mp2_author_energy=-29302.391748605172 mp2_my_energy=0 hash=59123 address=T id=71 energy=-17370.149332260535 pbc="F F F"
C        1.54052332       6.79299417       0.95286489      -0.81592956       0.99284570       0.13873358       0.05219012       1.05833632       0.21530020
C        2.31684859       5.60841076       1.43878853       0.22268764      -0.08226317      -0.11144651      -0.64050708       0.36004546      -0.00089331
H        2.82552010       5.19297173       0.57988390       0.05629587       0.25008318      -0.15760682       0.29198157      -0.49124568      -0.00827402
F       -0.24145345       6.00043889       1.28333620       0.23389016       1.63648621      -0.54811284      -0.15272546      -0.22671894       0.15508564
Cl       3.26808403       8.19604502       0.38490177       0.60461229       0.20579699       0.61616223      -0.19309727      -0.60790503       0.07860281
H        1.29599297       7.57597074       1.69436203       0.15828225      -0.02357145       0.19029776      -0.21784776      -0.58707759      -0.91628438
H        1.19740168       6.75800118      -0.08144234       0.24907261       0.26316655       0.02557691       0.11223414       0.57587775       0.52407932
H        1.53271374       4.95658375       1.85280341      -0.17255976      -0.04826754       0.26326225       0.41461301      -0.05442948      -0.21901426
H        3.02959627       5.90049693       2.19764591       0.24481783      -0.11701358      -0.03356522       0.33315872      -0.02688282       0.17139800
9
Properties=species:S:1:pos:R:3:momenta:R:3:forces:R:3 R1=H R2=H R3=CH3 R4=CH3 leaving_group=Cl nucleophile=Cl rxn=sn2 config=rcc label=H_H_CH3_CH3_Cl_Cl_sn2_rcc conformation=0 reactant_id=H_H_CH3_CH3_Cl_none_-_r product_id=H_H_CH3_CH3_none_Cl_sn2_pc mp2_author_energy=-29302.391748605172 mp2_my_energy=0 hash=59123 address=T id=71 energy=-17370.256080730473 pbc="F F F"
C        1.68218913       7.91605778       1.13163294       0.65060667       0.23165941       0.45809203      -1.38418096      -0.37563251       0.14494651
C        1.88178487       6.50571327       0.60966954       0.31295562       0.74033138      -0.56663054      -1.25182400      -0.16230015       0.97546509
H        2.70908193       6.48847609      -0.04531328       0.05674506      -0.03095188      -0.05776985       0.59954697      -0.13416810      -1.32273743
F       -0.20765369       7.78448429       1.24802770      -0.07051260       1.53239330      -0.19574785       1.42664103      -0.00975728      -0.17063743
Cl       3.90216857       8.51075410       0.94590978      -0.36483201      -0.14921664       0.66608184       0.56156184       0.09108365       0.32310484
H        1.66803811       8.13194314       2.18795554       0.17953461       0.17884895      -0.13722051       0.24479972       0.03114712      -0.26978796
H        1.68478651       8.72178927       0.42694652      -0.08625906      -0.03005060       0.22269535      -0.58402302       0.02359485       0.05249026
H        0.90638828       6.20730823       0.14961620      -0.13702467       0.05924854      -0.18883445       0.90147794       0.09762796       0.27628215
H        2.18459044       5.78205936       1.39082000       0.13382582       0.12692260       0.13055989      -0.51399952       0.43840446      -0.00912603
9
Properties=species:S:1:pos:R:3:momenta:R:3:forces:R:3 R1=H R2=H R3=CH3 R4=CH3 leaving_group=Cl nucleophile=Cl rxn=sn2 config=rcc label=H_H_CH3_CH3_Cl_Cl_sn2_rcc conformation=0 reactant_id=H_H_CH3_CH3_Cl_none_-_r product_id=H_H_CH3_CH3_none_Cl_sn2_pc mp2_author_energy=-29302.391748605172 mp2_my_energy=0 hash=59123 address=T id=71 energy=-17370.525367228554 pbc="F F F"
C        1.79975010       8.84710004       1.23239749       1.20396711      -0.23977468       0.00849335       0.11954228       0.03757273      -0.81223669
C        1.70193209       7.88958573       0.07053530      -0.34886924       1.45276390       0.07666308      -0.36100430      -0.11484797      -0.17886799
H        1.30051773       8.42134991      -0.83667315      -0.19322658       0.26899849       0.22298424       0.74345587      -0.48377749       0.79541924
F        0.13380411       9.35064254       1.09734139      -0.13207439       2.29614243      -0.87049977      -0.81712722      -0.29565173       0.31623586
Cl       4.23629497       8.61994395       1.44941357       0.67080977       0.54475712       0.79396932      -0.08377084       0.00138450       0.00609653
H        1.87593397       8.43911220       2.21488523      -0.13236990      -0.39689698       0.14177570      -0.27253771      -0.10986392       0.42140219
H        2.00593555       9.88208380       1.13629808      -0.01508169       0.16142381       0.15192399       0.94292695       0.21950747      -0.21587856
H        0.88871542       7.20892303       0.36812573      -0.04176442      -0.14417225      -0.05302093       0.15222095       0.14397468      -0.12565233
H        2.60522499       7.27857966      -0.09099302      -0.00487046       0.02174643       0.02158668      -0.42370598       0.60170174      -0.20651825
9
Properties=species:S:1:pos:R:3:momenta:R:3:forces:R:3 R1=H R2=H R3=CH3 R4=CH3 leaving_group=Cl nucleophile=Cl rxn=sn2 config=rcc label=H_H_CH3_CH3_Cl_Cl_sn2_rcc conformation=0 reactant_id=H_H_CH3_CH3_Cl_none_-_r product_id=H_H_CH3_CH3_none_Cl_sn2_pc mp2_author_energy=-29302.391748605172 mp2_my_energy=0 hash=59123 address=T id=71 energy=-17370.307633375553 pbc="F F F"
C        2.35726167      10.34088423       1.24382786       0.52788429       0.74267420       0.07025790       0.73516552      -1.37054903      -1.04532854
C        2.27275684       9.93398090      -0.22941863       1.07830216       0.66273216      -0.08055447      -0.83333223       0.49381735       0.73922020
H        2.62646456      10.84074532      -0.66763259       0.08249126       0.24823245       0.05923513       0.45616499       0.21264904      -0.94294451
F        0.94554327      11.30896568       1.13843916       1.10871379       1.23577115       0.46892829      -1.32237018       0.73116644       0.48551418
Cl       3.99356588       8.76518607       1.88626618      -1.78948422       1.06974469       0.11084654      -0.10987684      -0.08482410       0.11939513
H        2.38513415       9.46476166       1.91456652      -0.01282146      -0.04140977       0.01601292      -0.16384082       0.66704319       0.19837295
H        3.04628166      11.14155450       1.49830622       0.04394354      -0.07499154      -0.13134023      -0.14301877      -0.46432151      -0.07415110
H        1.22261544       9.81872527      -0.63996179      -0.00335771       0.00332720       0.10632634       0.97193113      -0.00408630       0.99607046
H        2.86472556       9.05638957      -0.39620689      -0.04083520       0.07288189      -0.13156969       0.40917721      -0.18089508      -0.47614876
9
Properties=species:S:1:pos:R:3:momenta:R:3:forces:R:3 R1=H R2=H R3=CH3 R4=CH3 leaving_group=Cl nucleophile=Cl rxn=sn2 config=rcc label=H_H_CH3_CH3_Cl_Cl_sn2_rcc conformation=0 reactant_id=H_H_CH3_CH3_Cl_none_-_r product_id=H_H_CH3_CH3_none_Cl_sn2_pc mp2_author_energy=-29302.391748605172 mp2_my_energy=0 hash=59123 address=T id=71 energy=-17370.54956069128 pbc="F F F"
C        3.10313279      11.45608400       1.36469974      -0.18200162       0.71856130       0.21204692       0.18445118      -0.11375461       0.53142130
C        3.34457776      11.37540021      -0.10803866       0.24263804       0.59004150       0.18668485       0.99019134       0.16861189       0.25772795
H        3.67815693      12.35848546      -0.47788126       0.22262263       0.00083966       0.03219026      -0.50644250      -0.08003264       0.13354447
F        1.99510462      12.78213587       1.36960312       0.94857221       1.42690729      -0.40667269       0.39762477      -0.07195435       0.17636130
Cl       3.26305903       9.21337115       1.94313925      -0.27121760      -0.06923403      -0.28094489       0.32554028      -0.38976732      -0.09414072
H        2.54161528      10.66739891       1.85713577      -0.25960069       0.13840989       0.15909274      -0.29394690       0.42270903      -0.38138916
H        3.93127705      11.72026252       2.02460787      -0.10882561      -0.13465239       0.03828239      -0.45763338       0.32555214      -0.59592354
H        2.43052412      11.06275370      -0.58655208      -0.07867481       0.08794365       0.43265202      -0.26072311       0.00268545      -0.43961348
H        4.16630951      10.69621976      -0.36539038       0.18678713      -0.00012399      -0.02971109      -0.37906168      -0.26404959       0.41201188
9
Properties=species:S:1:pos:R:3:momenta:R:3:forces:R:3 R1=H R2=H R3=CH3 R4=CH3 leaving_group=Cl nucleophile=Cl rxn=sn2 config=rcc label=H_H_CH3_CH3_Cl_Cl_sn2_rcc conformation=0 reactant_id=H_H_CH3_CH3_Cl_none_-_r product_id=H_H_CH3_CH3_none_Cl_sn2_pc mp2_author_energy=-29302.391748605172 mp2_my_energy=0 hash=59123 address=T id=71 energy=-17370.465586626087 pbc="F F F"
C        3.35355598      12.03504829       1.58321280       0.57421568       0.68430859      -0.02333720       0.27366687       1.72578431       0.13879652
C        4.15423933      12.03532501       0.35655763       0.96078359      -0.25562552      -0.08143697       0.79520575       1.02215385      -0.88668298
H        4.92760906      12.84318049       0.33422876      -0.06216565      -0.08514743       0.05155204      -0.19552113      -0.78995810       0.51009546
F        2.88775955      13.72149785       1.52180527       0.14453896       0.51287217       0.81556460      -0.07220167      -0.39160100       0.02711184
Cl       2.77250990       9.85020568       1.78971028      -0.89500386       1.63433797      -0.24772611       0.14779777      -0.67080478       0.06859346
H        2.47215707      11.42225972       1.49806362      -0.11907820      -0.11240615      -0.15587433      -0.49384692       0.22570965       0.57044112
H        3.87736851      12.15512336       2.50963872       0.01780220       0.10124918       0.06369563      -0.31552986      -0.61238576       0.34253825
H        3.48356678      12.39732603      -0.41291169       0.07804288       0.06674646      -0.14916469      -0.22040056      -0.45498553      -0.55048353
H        4.56457890      11.05246885       0.16336283      -0.06217317      -0.03714713       0.03926944       0.08082977      -0.05391265      -0.22041015
9
Properties=species:S:1:pos:R:3:momenta:R:3:forces:R:3 R1=H R2=H R3=CH3 R4=CH3 leaving_group=Cl nucleophile=Cl rxn=sn2 config=rcc label=H_H_CH3_CH3_Cl_Cl_sn2_rcc conformation=0 reactant_id=H_H_CH3_CH3_Cl_none_-_r product_id=H_H_CH3_CH3_none_Cl_sn2_pc mp2_author_energy=-29302.391748605172 mp2_my_energy=0 hash=59123 address=T id=71 energy=-17370.505727936463 pbc="F F F"
C        3.68331041      12.84572470       1.84434029       0.27153926       1.43552051       0.01857935       0.93132441       1.17162278      -0.39639323
C        4.91495375      12.39192113       1.09672968       0.57967401      -0.03651515       0.07323527      -0.07180148      -0.59970093      -0.72111839
H        5.73781852      12.28932703       1.80202254      -0.15297214      -0.06081210       0.11001404       0.17986918       0.17425417      -0.09866155
F        3.98258068      14.56357629       1.82200088       0.70728787       0.59395766       0.70233396      -0.20475062      -0.50054506       0.14361315
Cl       2.26939232      11.03091215       1.46716276      -0.91546382       0.69001698      -0.50116835      -0.05921307      -0.06581138      -0.01937048
H        2.70535604      12.71002327       1.44652229      -0.01790431       0.27827121      -0.14432572      -0.50769274      -0.09622262      -0.78610000
H        3.62258114      12.69531325       2.89852559       0.20000199       0.05002396      -0.09635450       0.46108223      -0.07243782       0.37031869
H        5.25344407      12.98656108       0.20561649       0.02957628      -0.17855966       0.01339936      -0.62236606       0.19985542       1.14902117
H        4.73672643      11.41285695       0.65265988      -0.02016766      -0.08698665       0.15871760      -0.10645185      -0.21101456       0.35869063
9
Properties=species:S:1:pos:R:3:momenta:R:3:forces:R:3 R1=H R2=H R3=CH3 R4=CH3 leaving_group=Cl nucleophile=Cl rxn=sn2 config=rcc label=H_H_CH3_CH3_Cl_Cl_sn2_rcc conformation=0 reactant_id=H_H_CH3_CH3_Cl_none_-_r product_id=H_H_CH3_CH3_none_Cl_sn2_pc mp2_author_energy=-29302.391748605172 mp2_my_energy=0 hash=59123 address=T id=71 energy=-17370.576301090845 pbc="F F F"
C        3.98700430      13.54782192       2.07694107       1.41657332       0.20631256      -0.18025828       0.39455253      -0.91393231       0.49220043
C        5.00130164      12.43788599       1.93615268      -0.72296907       0.03868884       0.74242199       0.38618716       0.02875515       0.88426658
H        5.62876633      12.29790645       2.84683966       0.06938469       0.05833371      -0.24916167      -0.55304827       0.30807845      -0.44292387
F        4.89459272      15.01257293       2.07945050       0.38507529       0.27985563       0.64600039       0.11673949      -0.34831741       0.15608518
Cl       2.12171982      12.42862387       1.12186524      -0.31353268       1.78383268      -0.59212877       0.15516589       0.18994977       0.09199927
H        3.36992931      13.66853463       1.20559201       0.09263357      -0.10583799      -0.02797332      -0.64033346       0.04850460       0.11166882
H        3.52474272      13.55138987       3.06628706       0.10808029       0.14495036      -0.26098650      -0.21457563       0.39273856      -0.69008429
H        5.69208355      12.66354959       1.14223059      -0.18896787       0.17435225      -0.03634294       0.29051299      -0.00694849      -0.55077904
H        4.48647283      11.48944777       1.74539235      -0.15703638       0.13464191       0.29662345       0.06479930       0.30117168      -0.05243308
9
Properties=species:S:1:pos:R:3:momenta:R:3:forces:R:3 R1=H R2=H R3=CH3 R4=CH3 leaving_group=Cl nucleophile=Cl rxn=sn2 config=rcc label=H_H_CH3_CH3_Cl_Cl_sn2_rcc conformation=0 reactant_id=H_H_CH3_CH3_Cl_none_-_r product_id=H_H_CH3_CH3_none_Cl_sn2_pc mp2_author_energy=-29302.391748605172 mp2_my_energy=0 hash=59123 address=T id=71 energy=-17370.474311801467 pbc="F F F"
C        4.29990787      14.39044296       2.19868331       0.84412719       0.49067586       0.14100782      -0.98509906       2.35299387       0.63919958
C        4.36836659      13.03318386       2.71304560      -0.48613850       0.42544603       0.13548791       1.17625452      -1.54345646      -0.94674366
H        4.95436605      12.96736980       3.62141663       0.03719030       0.06054507      -0.11045474      -0.19716115       0.31112085       0.48490605
F        5.91133597      15.01726833       2.44369641       0.46364316       0.06479572       0.29562257      -1.26103242      -0.57524335      -0.19149939
Cl       2.31090432      14.08380426       0.83389956       0.08775294       2.01976353      -0.39006062       0.40642236       0.13553538       0.13049388
H        3.96427883      14.53821471       1.17649990       0.21659249       0.02615231      -0.13135574       0.23030451      -0.13104892      -0.17424977
H        3.65895275      15.05118294       2.82940047      -0.16796269      -0.10754446       0.11917411       1.16714090      -0.45989423      -0.53706099