9
Properties=species:S:1:pos:R:3:momenta:R:3:forces:R:3 R1=H R2=H R3=CH3 R4=CH3 leaving_group=Cl nucleophile=Cl rxn=sn2 config=rcc label=H_H_CH3_CH3_Cl_Cl_sn2_rcc conformation=0 reactant_id=H_H_CH3_CH3_Cl_none_-_r product_id=H_H_CH3_CH3_none_Cl_sn2_pc mp2_author_energy=-29302.391748605172 mp2_my_energy=0 hash=59123 address=T id=71 energy=-17370.412368016237 pbc="F F F"
C        0.12542541       0.11270554      -0.00029240      -0.07408594       0.40884122       0.32444424      -0.09214561       1.11788396      -0.00082481
C        1.62503867       0.00847468       0.00156754       0.45401056       0.24618668      -0.22511607      -0.06338950      -0.85342640       0.00215309
H        1.99473018      -0.50605055       0.89354482       0.03243169      -0.20108008       0.16432105       0.00320508       0.00300841       0.00517082
F        0.89788639       2.64149152      -0.00442372      -0.22218332       0.21821848      -0.48342244      -0.23271315      -0.10403772      -0.00076135
Cl      -0.69504884      -1.53494042       0.00509220       0.25736366      -2.13380388       1.00691415       0.38207948      -0.16174994      -0.00050876
H       -0.22306082       0.64592326      -0.87549887       0.11260612      -0.04598094       0.15203699      -0.00302890      -0.00293595      -0.00472561
H       -0.22431889       0.65275656       0.87018381      -0.03420147      -0.32056409      -0.06823090      -0.00396382      -0.00350204       0.00469305
H        1.88822962       1.08069343      -0.00059746       0.06179426       0.06661530      -0.00735401       0.00778691       0.00253743      -0.00033365
H        1.99700981      -0.51031959      -0.88698835      -0.21737384      -0.01616068      -0.06293965       0.00216950       0.00222225      -0.00486279
9
Properties=species:S:1:pos:R:3:momenta:R:3:forces:R:3 R1=H R2=H R3=CH3 R4=CH3 leaving_group=Cl nucleophile=Cl rxn=sn2 config=rcc label=H_H_CH3_CH3_Cl_Cl_sn2_rcc conformation=0 reactant_id=H_H_CH3_CH3_Cl_none_-_r product_id=H_H_CH3_CH3_none_Cl_sn2_pc mp2_author_energy=-29302.391748605172 mp2_my_energy=0 hash=59123 address=T id=71 energy=-17370.324082677675 pbc="F F F"
C        0.26221147      -0.52491456       0.38197274       0.33944898      -0.76899999       0.23713279       1.85605416      -1.92367014      -0.34523021
C        1.61579360      -0.44255559      -0.34491207       0.22570223       0.56187107      -0.28918243      -1.33635279      -0.64776081      -0.90654683
H        2.41600022      -0.77203847       0.28518622      -0.02197932       0.04714870      -0.17032920       0.63959981       0.01570368       0.55112272
F        0.03663614       1.93954801      -0.39783095      -0.48370925      -0.70931427      -0.40670539      -0.07475424       1.74424723      -0.52100654
Cl       0.04203125      -2.24108042       0.91159308       0.41047920      -0.98893963       1.38477784       0.03204426      -0.54535728       0.37457963
H       -0.50822216      -0.27404026      -0.28638522       0.17843431      -0.00440952       0.08680539      -0.93064296       0.45201394      -0.55667598
H        0.27549274       0.14124600       1.20809307       0.00984414      -0.12633871       0.01903067      -0.26312431       0.36472062       0.73009775
H        1.63491037       0.62149938      -0.62434059      -0.18942775      -0.02001737      -0.06191495       0.13142364      -0.18861203       0.01286361
H        1.61498471      -1.12499940      -1.24020286      -0.05840749       0.03916071       0.08756164      -0.05424757       0.72871479       0.66079585
9
Properties=species:S:1:pos:R:3:momenta:R:3:forces:R:3 R1=H R2=H R3=CH3 R4=CH3 leaving_group=Cl nucleophile=Cl rxn=sn2 config=rcc label=H_H_CH3_CH3_Cl_Cl_sn2_rcc conformation=0 reactant_id=H_H_CH3_CH3_Cl_none_-_r product_id=H_H_CH3_CH3_none_Cl_sn2_pc mp2_author_energy=-29302.391748605172 mp2_my_energy=0 hash=59123 address=T id=71 energy=-17370.279208857406 pbc="F F F"
C        0.40172122      -1.25566099       0.77830635       0.48221008      -1.48854516       0.04827290       0.17598910      -1.74553712      -0.16257589
C        1.21696607      -1.39310109      -0.46680360      -0.05359764      -0.86289458       0.78721577       0.09366594       0.82035940      -0.22446801
H        2.28276958      -1.16895848      -0.29244174       0.01533616      -0.17421168      -0.14526918      -0.28498013      -0.50567694       0.00327495
F       -0.95596194       0.49760254      -0.64833076      -0.86983240      -1.60641957       0.29812834       0.13750514      -0.01100824       0.11888123
Cl       1.10043076      -2.66796016       1.80104640       1.60454413       0.96081231       0.59942856       0.05443668       0.55531009       0.55969510
H       -0.61290839      -1.55837441       0.66036119      -0.13250070      -0.08895038       0.01958081      -0.60072775       0.19170191      -0.39878452
H        0.41089056      -0.29748596       1.25326062      -0.20184061       0.11466579       0.00491916       0.40362294       0.37869566       0.44000100
H        0.81531837      -0.60958064      -1.09335734      -0.12207535       0.05096650       0.08715507      -0.34523526       0.29334520      -0.39358403
H        1.03318518      -2.36832293      -0.92161693       0.00017421      -0.37301282      -0.13769796       0.36572333       0.02281003       0.05756016
9
Properties=species:S:1:pos:R:3:momenta:R:3:forces:R:3 R1=H R2=H R3=CH3 R4=CH3 leaving_group=Cl nucleophile=Cl rxn=sn2 config=rcc label=H_H_CH3_CH3_Cl_Cl_sn2_rcc conformation=0 reactant_id=H_H_CH3_CH3_Cl_none_-_r product_id=H_H_CH3_CH3_none_Cl_sn2_pc mp2_author_energy=-29302.391748605172 mp2_my_energy=0 hash=59123 address=T id=71 energy=-17370.255052898705 pbc="F F F"
C        0.51213085      -2.44711900       1.09891980      -0.26303667      -0.70037764       0.06939197      -1.71456163      -0.25314746       1.45711991
C        0.98592823      -2.89630880      -0.21470007       0.20681655      -0.57762899       0.82023289      -0.48000701       1.50021901      -1.27615891
H        1.75024811      -2.27330215      -0.69606845      -0.10999722      -0.00254000       0.15646771      -0.20401569       0.19448500       0.32315126
F       -1.64726894      -2.01710785      -0.09892050      -0.53216900      -1.50015376       0.09780362       0.67238895      -0.18764353       0.43034542
Cl       2.01311722      -2.46589895       2.29631839       1.22760549       0.14517890      -0.34151263       0.31301697       0.11030912      -0.01947250
H       -0.13845880      -3.19576076       1.59345111       0.02733250      -0.02705836       0.26536080       0.30265254       0.64021985      -0.67562500
H        0.00724348      -1.48364512       1.17273793      -0.15319963       0.06268686      -0.01714468       0.44655975      -0.31804430      -0.37718980
H        0.03400618      -2.81977920      -0.75665846       0.11561715      -0.29040627       0.14818363       0.04692116       0.10573894      -0.19423169
H        1.32282567      -3.88397542      -0.25059373       0.04570803       0.17986140       0.02194406       0.61704497      -1.79213664       0.33206131
9
Properties=species:S:1:pos:R:3:momenta:R:3:forces:R:3 R1=H R2=H R3=CH3 R4=CH3 leaving_group=Cl nucleophile=Cl rxn=sn2 config=rcc label=H_H_CH3_CH3_Cl_Cl_sn2_rcc conformation=0 reactant_id=H_H_CH3_CH3_Cl_none_-_r product_id=H_H_CH3_CH3_none_Cl_sn2_pc mp2_author_energy=-29302.391748605172 mp2_my_energy=0 hash=59123 address=T id=71 energy=-17370.116576597226 pbc="F F F"
C        0.61366893      -3.32168727       1.46983414       0.24818589       0.01353681      -0.39188528      -1.29011998       0.68021838       1.51650227
C        1.15050203      -4.22279717       0.43688994       0.77664454      -0.99600191       0.58653296      -1.03671680      -0.83279486      -1.31461896
H        1.39681168      -3.67536355      -0.49554035      -0.12086473      -0.04773758      -0.11306537       0.30318848      -0.28399258       0.57386263
F       -1.48533046      -4.17948373       0.93212884      -0.37950783      -2.16742500       1.27886930      -0.42400487      -0.12518082      -0.02850921
Cl       2.20926869      -2.26916785       2.16131583       0.15709015       0.07235867       0.08260996       0.13996206       0.01228099      -0.12576621
H        0.23098414      -3.76730773       2.41435548       0.12084533       0.11321427       0.07730510       0.54395741       0.16589500      -1.07130908
H       -0.12283217      -2.57319038       1.13274767      -0.02538414      -0.15847658      -0.16111057       0.80276434      -0.54786609       0.08608022
H        0.23454114      -4.82097492       0.20112502      -0.09878854       0.15099286      -0.07476788       0.45231227       0.57457685       0.18932214
H        1.90332748      -4.93972477       0.74936206      -0.06616710       0.08169510       0.03865805       0.50865711       0.35686313       0.17443619
9
Properties=species:S:1:pos:R:3:momenta:R:3:forces:R:3 R1=H R2=H R3=CH3 R4=CH3 leaving_group=Cl nucleophile=Cl rxn=sn2 config=rcc label=H_H_CH3_CH3_Cl_Cl_sn2_rcc conformation=0 reactant_id=H_H_CH3_CH3_Cl_none_-_r product_id=H_H_CH3_CH3_none_Cl_sn2_pc mp2_author_energy=-29302.391748605172 mp2_my_energy=0 hash=59123 address=T id=71 energy=-17370.150111596693 pbc="F F F"
C        0.53868777      -4.46117063       1.99059883      -0.18533558      -1.10442437      -0.05377387       0.12708497       0.11461652      -0.17059414
C        1.67986199      -5.25749186       1.42510975      -0.04161336      -0.69078739       0.45508692      -0.98883744      -0.55543100       0.24662161
H        1.90639161      -4.98750004       0.41226577       0.14619027      -0.05126260       0.00798042       0.14611285       0.52674641      -0.58563970
F       -0.71330661      -6.18119652       2.32076767       1.00968537      -0.87432589       0.62642974       0.08200303      -0.08245232      -0.06905659
Cl       1.99549663      -2.37059658       1.70594323      -0.15599172       0.51022758      -0.58902567      -0.24392968       0.00938841       0.07920573
H        0.55307464      -4.18457543       3.02228116       0.01043037       0.05907743       0.21685943       0.16303854       0.05910096       0.17347732
H       -0.19172382      -3.94805281       1.39104117      -0.05065443       0.08477305       0.13346476       0.31490623      -0.06329622      -0.22638737
H        1.36981861      -6.31478451       1.37731346      -0.16182901       0.02720864       0.15092154       0.19239857       0.38205710       0.56093380
H        2.54164077      -5.05989986       2.05207859      -0.11773636      -0.13557485       0.03167334       0.20722293      -0.39072987      -0.00856067
9
Properties=species:S:1:pos:R:3:momenta:R:3:forces:R:3 R1=H R2=H R3=CH3 R4=CH3 leaving_group=Cl nucleophile=Cl rxn=sn2 config=rcc label=H_H_CH3_CH3_Cl_Cl_sn2_rcc conformation=0 reactant_id=H_H_CH3_CH3_Cl_none_-_r product_id=H_H_CH3_CH3_none_Cl_sn2_pc mp2_author_energy=-29302.391748605172 mp2_my_energy=0 hash=59123 address=T id=71 energy=-17370.372848885676 pbc="F F F"
C        0.82492996      -5.47493285       2.60663999       0.45416652      -1.00351079       0.64620821       1.58687809      -0.17575076      -0.18387602
C        2.23715479      -5.94497095       2.30452420       0.04662803      -0.74382991       0.78949911      -0.21460369       0.37886883      -1.64063122
H        2.54889243      -6.47199475       3.17040700      -0.07066468      -0.11919207      -0.12744441       0.53361783      -0.29294760       0.83675882
F        0.66310450      -7.14252168       3.62281029       1.16306246      -0.65194279       1.21543625      -0.64483552      -0.85785133       0.73075046
Cl       1.32960420      -3.18385196       1.30600082      -1.02291625      -0.46747771      -0.98869415      -0.04423232       0.35655431      -0.20665512
H        0.70062930      -4.71076356       3.32700829      -0.04955234      -0.11062548      -0.20582601       0.03221178       0.41581163       0.60545483
H       -0.01139757      -5.64674261       1.99770637       0.12282972      -0.27452569      -0.02774355      -0.48046675      -0.24890074      -0.87665714
H        2.91479136      -5.12633636       2.03185393      -0.05848989       0.05580850       0.08607789      -0.37023092      -0.17677817       0.18891408
H        2.27365801      -6.69396983       1.47651384       0.05896783       0.22395966       0.00476311      -0.39833850       0.60099383       0.54594131
9
Properties=species:S:1:pos:R:3:momenta:R:3:forces:R:3 R1=H R2=H R3=CH3 R4=CH3 leaving_group=Cl nucleophile=Cl rxn=sn2 config=rcc label=H_H_CH3_CH3_Cl_Cl_sn2_rcc conformation=0 reactant_id=H_H_CH3_CH3_Cl_none_-_r product_id=H_H_CH3_CH3_none_Cl_sn2_pc mp2_author_energy=-29302.391748605172 mp2_my_energy=0 hash=59123 address=T id=71 energy=-17370.908475887823 pbc="F F F"
C        1.53025855      -6.55574836       3.27386087       0.46353001      -0.65953282       0.32071153       0.63750569       0.13233312       0.04575111
C        2.93184161      -6.14387024       3.03509088       0.45196872      -0.11707199       0.89658220       0.01265337       1.40296043      -0.54723030
H        3.34959254      -5.39839877       3.72829442       0.04808125      -0.25301677      -0.07772821      -0.48634492      -0.24309952      -0.00955573
F        1.88242767      -7.63167180       4.66823060       1.17379894       0.15854705       0.11123588      -0.19489774      -0.08347154       0.29209116
Cl       0.55944701      -4.59107346       1.16676521      -1.68877110      -2.23320520      -0.27546248       0.19031022      -0.45336473       0.41597006
H        0.75707261      -5.91036244       3.61178343       0.10975993      -0.05335391      -0.19306471      -0.04770269       0.50248577       0.39489706
H        1.19152360      -7.31703600       2.62981212       0.14974455       0.07968874       0.19987664      -0.49027422      -0.67420480      -0.70954435
H        2.92691904      -5.69536686       2.04177480       0.14920328       0.04910089       0.19281782       0.21667396       0.13744658      -0.00934673
H        3.58628412      -6.99213843       3.03811263      -0.18198961      -0.21270551       0.28496084       0.16207632      -0.72108531       0.12696772
9
Properties=species:S:1:pos:R:3:momenta:R:3:forces:R:3 R1=H R2=H R3=CH3 R4=CH3 leaving_group=Cl nucleophile=Cl rxn=sn2 config=rcc label=H_H_CH3_CH3_Cl_Cl_sn2_rcc conformation=0 reactant_id=H_H_CH3_CH3_Cl_none_-_r product_id=H_H_CH3_CH3_none_Cl_sn2_pc mp2_author_energy=-29302.391748605172 mp2_my_energy=0 hash=59123 address=T id=71 energy=-17371.461950200683 pbc="F F F"
C        2.24821531      -7.22178793       3.78124347       0.68051276      -0.23721324       0.30783318       0.73783116       0.86441245      -0.81435782
C        3.02784153      -6.03109677       3.36585019       0.36550769       0.31095139       0.16985694       0.93609900      -0.91514496      -1.12506450
H        3.04880254      -5.23469106       4.07000057       0.05657605      -0.06272381       0.05304634      -0.07940025       0.57496642       0.80667429
F        2.92031364      -7.66641317       5.19651948       0.62186870      -0.41813050       0.74834926       0.40179330      -0.41215505       0.22098126
Cl       0.14546835      -6.56155290       1.54460776      -1.38656584      -2.33210023      -0.13573149       0.07996246      -0.11460768       0.08342408
H        1.26577063      -7.05012864       4.02507666      -0.05918226       0.03816675      -0.05602974      -2.11421048       0.36538594       0.62527287
H        2.32261320      -8.00559883       3.06135904       0.21395242      -0.00768506       0.14186951       0.23090018      -0.86074970      -0.02705465
H        2.58226224      -5.68162415       2.42668764       0.16220556       0.10737091      -0.10907182       0.17855905      -0.04639150       0.18093480
H        4.05892480      -6.40295756       3.18758571      -0.13153465       0.08934145       0.01124278      -0.37153441       0.54428408       0.04918966
9
Properties=species:S:1:pos:R:3:momenta:R:3:forces:R:3 R1=H R2=H R3=CH3 R4=CH3 leaving_group=Cl nucleophile=Cl rxn=sn2 config=rcc label=H_H_CH3_CH3_Cl_Cl_sn2_rcc conformation=0 reactant_id=H_H_CH3_CH3_Cl_none_-_r product_id=H_H_CH3_CH3_none_Cl_sn2_pc mp2_author_energy=-29302.391748605172 mp2_my_energy=0 hash=59123 address=T id=71 energy=-17372.026905486196 pbc="F F F"
C        2.67636071      -7.58336488       4.07319325       0.57064721       0.35309675       0.31529152       0.79497015       0.57188230      -0.86715445
C        2.70969325      -6.17831018       3.49474329      -0.16025118       0.75358619      -0.43370882      -0.35534973      -0.68115573       0.07000699
H        2.36761172      -5.49174020       4.24142534       0.09317375      -0.22490384       0.00629339      -0.50442622       0.53763768       0.48950869
F        3.58763094      -7.58759492       5.29037984       0.22745562      -0.64762599       0.23027266      -0.21812425       0.04941404      -0.39173895
Cl       0.13519341      -8.18981936       2.12996190      -0.28342320      -2.66903406       0.87653825      -0.08380760      -0.12074187      -0.08660917
H        1.70183262      -7.88827019       4.38311413      -0.08984605       0.03290822      -0.03902422      -0.44413423      -0.13713514       0.28057498
H        3.09302824      -8.29954065       3.35794896       0.23377817      -0.31296995       0.05079186      -0.08177697      -0.04422012       0.36992415
H        2.03864306      -6.15319150       2.61657055      -0.16647803       0.15231426      -0.04085470       0.35818199      -0.01765051       0.45520407
H        3.70797502      -5.85648243       3.24571280       0.07775374       0.14915155       0.12138208       0.53446686      -0.15803066      -0.31971631
9
Properties=species:S:1:pos:R:3:momenta:R:3:forces:R:3 R1=H R2=H R3=CH3 R4=CH3 leaving_group=Cl nucleophile=Cl rxn=sn2 config=rcc label=H_H_CH3_CH3_Cl_Cl_sn2_rcc conformation=0 reactant_id=H_H_CH3_CH3_Cl_none_-_r product_id=H_H_CH3_CH3_none_Cl_sn2_pc mp2_author_energy=-29302.391748605172 mp2_my_energy=0 hash=59123 address=T id=71 energy=-17372.027273673553 pbc="F F F"
C        3.01918539      -7.90145393       4.23293284       0.02974534      -0.32446916      -0.40999354      -0.05026380       1.40807347      -1.16476417
C        2.20721832      -6.71454424       3.68329770       0.24937131       0.22556632       0.26469905      -0.37416389      -0.65425002       2.00934677
H        1.82856581      -6.15425440       4.55426375       0.00727220      -0.06525405       0.03693648       0.05519455      -0.13752335      -0.14322392
F        4.02089017      -7.41483692       5.11524169      -0.33943999      -0.02890703      -0.11948593      -0.11112163      -0.06415775      -1.00414494
Cl       0.37407936      -9.76498724       2.90181955       0.86411948      -2.64605696       1.81679364       0.18073937      -0.05266464       0.06319631
H        2.41353915      -8.48536081       4.82751657       0.02532361      -0.31964318       0.03108105      -1.47721780      -1.39861843       1.13878671
H        3.40395371      -8.54201537       3.43141826       0.09434664       0.06171786      -0.16940456       0.46688318       0.33433416       0.26695133
H        1.33042920      -7.05512925       3.12826895      -0.21611209       0.17520325      -0.09557710       0.33113996      -0.22058624      -0.10015970
H        2.78821754      -6.03016428       3.13765545      -0.08581034      -0.09646049       0.00433481       0.97881006       0.78539279      -1.06598838
9
Properties=species:S:1:pos:R:3:momenta:R:3:forces:R:3 R1=H R2=H R3=CH3 R4=CH3 leaving_group=Cl nucleophile=Cl rxn=sn2 config=rcc label=H_H_CH3_CH3_Cl_Cl_sn2_rcc conformation=0 reactant_id=H_H_CH3_CH3_Cl_none_-_r product_id=H_H_CH3_CH3_none_Cl_sn2_pc mp2_author_energy=-29302.391748605172 mp2_my_energy=0 hash=59123 address=T id=71 energy=-17372.116318449625 pbc="F F F"
C        2.97213182      -8.43685103       4.45192488      -0.08839127       0.38694742      -0.38829936      -0.07847883       1.96587121       0.91536825
C        1.72848442      -7.67267537       4.04235512      -0.03691907      -0.17663261      -0.12674473       0.79982487      -0.58657972      -1.15135676
H        1.63757883      -6.78359444       4.62693644       0.05598034       0.02965600       0.04493935      -0.22747895       0.58302269       0.52407206
F        3.97925968      -7.42426543       4.43884390      -0.02812522      -0.58497949       0.08324032      -0.24117519      -0.90554520      -0.16333516
Cl       1.04692841     -11.24051152       3.96607368       0.72356695      -1.33017798       1.06711293      -0.01188020      -0.17328863       0.02866260
H        2.97579177      -8.83055508       5.45789765       0.15312685      -0.03108304       0.03382166      -0.28381215      -0.12068932       0.23355555
H        3.18847666      -9.21530910       3.77540221      -0.13639865       0.20012108      -0.00517141       0.51252875      -0.80330924      -0.87043436
H        0.84006881      -8.28718749       4.02809628      -0.12774359      -0.23015575      -0.02876864      -0.15568283      -0.20620323       0.27026840
H        1.94871240      -7.39259824       3.00009951      -0.14401750      -0.04486575       0.12207352      -0.31384546       0.24672143       0.21319942
9
Properties=species:S:1:pos:R:3:momenta:R:3:forces:R:3 R1=H R2=H R3=CH3 R4=CH3 leaving_group=Cl nucleophile=Cl rxn=sn2 config=rcc label=H_H_CH3_CH3_Cl_Cl_sn2_rcc conformation=0 reactant_id=H_H_CH3_CH3_Cl_none_-_r product_id=H_H_CH3_CH3_none_Cl_sn2_pc mp2_author_energy=-29302.391748605172 mp2_my_energy=0 hash=59123 address=T id=71 energy=-17372.12703104784 pbc="F F F"
C        2.85187383      -8.91277472       4.22236149       0.30853519      -0.86987476       1.01536719       1.64280619      -0.34396533       0.37741508
C        1.41124715      -8.54984821       4.40779176       0.51149870      -0.11979874      -0.22901778       0.14222831       0.35435829      -0.77288993
H        1.29405426      -7.77544951       5.15822767       0.07421622      -0.23730446      -0.16965282       0.02682215      -0.00249212       0.30641625
F        3.63527296      -7.75021233       3.95861890      -1.22244295      -0.23399970      -0.93468995      -0.77667591      -0.38198101      -0.35086285
Cl       1.76425691     -12.19979019       4.91439166       1.01243698      -1.01475445       0.97823683       0.18182686       0.24062238      -0.07686972
H        3.29127033      -9.25430268       5.18211169       0.06083874       0.15061036      -0.06118099      -0.53040752      -0.38024967      -0.69369019
H        3.05416530      -9.66461703       3.40839458      -0.17197370      -0.01929161       0.36280164      -0.38745391       0.80300203       0.93706849
H        0.95632221      -9.48640208       4.69562743       0.14128172      -0.33628765       0.31054449      -0.49395645      -0.20445685       0.28162854
H        0.93577025      -8.19109841       3.48733661      -0.15075819      -0.02472328      -0.05393927       0.19481027      -0.08483771      -0.00821567
9
Properties=species:S:1:pos:R:3:momenta:R:3:forces:R:3 R1=H R2=H R3=CH3 R4=CH3 leaving_group=Cl nucleophile=Cl rxn=sn2 config=rcc label=H_H_CH3_CH3_Cl_Cl_sn2_rcc conformation=0 reactant_id=H_H_CH3_CH3_Cl_none_-_r product_id=H_H_CH3_CH3_none_Cl_sn2_pc mp2_author_energy=-29302.391748605172 mp2_my_energy=0 hash=59123 address=T id=71 energy=-17371.78554948605 pbc="F F F"
C        2.34561116      -9.83340744       3.89986606       0.00113100      -0.95403708       0.45741745       1.70526900      -2.13222511       1.39962472
C        1.31809949      -9.42342655       4.86920957       0.10987501      -0.51798784      -0.42626279       0.47977925       1.53179347       0.75733817
H        1.72699264      -9.02479560       5.84562242       0.00913189      -0.07990823       0.12309720      -0.21376529      -0.43023449      -1.23659548
F        3.02524019      -8.63215792       3.67185681      -0.39377165       0.16603446      -0.52042383       0.80175453       0.49485664      -0.90742221
Cl       2.69029848     -12.70799436       5.77280080       1.15187385      -0.72436863       1.32696591      -0.01690534      -0.30609248       0.08543486
H        3.02510470     -10.61568702       4.41743593      -0.01789023      -0.00652349      -0.09305445      -0.89483596       1.42352474      -1.35592366
H        1.94400232     -10.24694763       2.95021901      -0.31905135      -0.09349752       0.07707093       0.24995531       0.43875767       0.58581747
H        0.71708630     -10.23354603       5.06872184       0.02156954      -0.22852164       0.21594743      -1.42749618      -1.98364027       0.74342994
H        0.75276238      -8.67331895       4.36664971      -0.00528574      -0.23757264       0.04463172      -0.68375532       0.96325983      -0.07170382
9
Properties=species:S:1:pos:R:3:momenta:R:3:forces:R:3 R1=H R2=H R3=CH3 R4=CH3 leaving_group=Cl nucleophile=Cl rxn=sn2 config=rcc label=H_H_CH3_CH3_Cl_Cl_sn2_rcc conformation=0 reactant_id=H_H_CH3_CH3_Cl_none_-_r product_id=H_H_CH3_CH3_none_Cl_sn2_pc mp2_author_energy=-29302.391748605172 mp2_my_energy=0 hash=59123 address=T id=71 energy=-17371.970921316046 pbc="F F F"
C        2.29391618     -10.54225114       4.37558567      -0.51428368      -0.60333229      -0.95422727       0.14807407      -0.50298461       0.17699127
C        1.08578752     -10.24762058       5.22940818       0.07943713      -0.77989121       0.80227850      -1.63833874      -1.13688451      -2.96275921
H        0.90466245      -9.22324990       5.45882162      -0.01652145       0.13766441       0.05918276       0.24747549       1.01629752      -0.05250103
F        2.28045027      -9.77804085       3.17865527      -0.03960011      -0.59243318       0.10818047      -0.05432239      -0.65291717       0.83637535
Cl       3.54280598     -13.14214393       6.42764515       0.97643874       0.09495933       0.90661712      -0.16379566       0.30265921      -0.19044768
H        3.09870492     -10.23383773       5.01601638       0.05282488      -0.13651537       0.16758010       1.01998791       0.22002833      -0.28162377
H        2.44223912     -11.64527240       4.18282937       0.03330378      -0.14485754      -0.22152748      -0.43085750       1.39933355      -0.04541860
H        1.25834261     -10.77750274       6.10612428      -0.07576554      -0.04718742       0.05365647       0.09234165      -1.09712556       1.77715887
H        0.16731294     -10.65430758       4.70509578      -0.07683205       0.06039455      -0.01593672       0.77943515       0.45159324       0.74222481
9
Properties=species:S:1:pos:R:3:momenta:R:3:forces:R:3 R1=H R2=H R3=CH3 R4=CH3 leaving_group=Cl nucleophile=Cl rxn=sn2 config=rcc label=H_H_CH3_CH3_Cl_Cl_sn2_rcc conformation=0 reactant_id=H_H_CH3_CH3_Cl_none_-_r product_id=H_H_CH3_CH3_none_Cl_sn2_pc mp2_author_energy=-29302.391748605172 mp2_my_energy=0 hash=59123 address=T id=71 energy=-17372.063738698587 pbc="F F F"
C        2.27073083     -11.23296184       4.62328875       0.26842103      -0.86863190       0.26066820      -2.16679971      -0.77083773      -0.77559594
C        1.03558387     -11.16736782       5.49701343      -0.07682113       0.65721015       0.64121461       0.32788630       0.82534869      -0.55697166
H        0.38495025     -10.33730863       5.15598683      -0.02956169      -0.06386238      -0.03158954       0.45727569      -0.19232571       0.33447636
F        1.75771178     -11.10713262       3.30309742      -0.42218845      -1.27136241       0.42415567       0.53090039      -0.36888971       0.27388186
Cl       4.14188267     -13.19750307       6.79258441       0.65676901       0.09492423       0.27540197       0.04267827      -0.00751507       0.09593380
H        2.88573830     -10.41070409       4.74926867       0.00285703       0.17709517       0.03375742       1.44694669       1.67268569       0.40834330
H        2.82347523     -12.14762339       4.77753118       0.17495970      -0.06906075      -0.37995077       0.05732305      -0.22234984      -0.28046064
H        1.29123736     -11.08965696       6.53911057      -0.26396775      -0.17644554      -0.17136680       0.03793705       0.10144800       0.47417527
H        0.49788757     -12.06049243       5.31007116       0.09989922      -0.44961882      -0.16515348      -0.73414775      -1.03756433       0.02621765
9
Properties=species:S:1:pos:R:3:momenta:R:3:forces:R:3 R1=H R2=H R3=CH3 R4=CH3 leaving_group=Cl nucleophile=Cl rxn=sn2 config=rcc label=H_H_CH3_CH3_Cl_Cl_sn2_rcc conformation=0 reactant_id=H_H_CH3_CH3_Cl_none_-_r product_id=H_H_CH3_CH3_none_Cl_sn2_pc mp2_author_energy=-29302.391748605172 mp2_my_energy=0 hash=59123 address=T id=71 energy=-17371.955467627078 pbc="F F F"
C        2.02334704     -12.40653596       4.80004757      -0.11614162       0.22419282       0.01301420       0.38561049      -2.34465087       1.25870632
C        0.95996089     -12.10870286       5.86650204      -0.40587651      -0.91680898       0.77965585       1.69514207      -0.23564240       0.15277289
H        0.68369324     -11.10278734       5.75079473      -0.14994448       0.25812784       0.07510640      -0.81238092       1.50841220      -0.19682735
F        1.50739828     -12.21048206       3.51412460       0.03898838      -1.79955694      -0.17404796      -1.23044688      -0.24366830      -0.84158376
Cl       4.67973325     -13.08484487       7.05538736       1.28256467      -0.31722211       0.62766304      -0.29630871       0.06486857      -0.22324576
H        2.88548943     -11.79998648       4.73039534      -0.28454083      -0.06708528      -0.11983706       0.85672206       0.83868759       1.14707549
H        2.38771174     -13.46737431       4.91242283       0.10623324       0.28040563      -0.11710563      -0.43452373       1.04435826      -0.32932365