9
Properties=species:S:1:pos:R:3:momenta:R:3:forces:R:3 R1=H R2=H R3=CH3 R4=CH3 leaving_group=Cl nucleophile=Cl rxn=sn2 config=rcc label=H_H_CH3_CH3_Cl_Cl_sn2_rcc conformation=0 reactant_id=H_H_CH3_CH3_Cl_none_-_r product_id=H_H_CH3_CH3_none_Cl_sn2_pc mp2_author_energy=-29302.391748605172 mp2_my_energy=0 hash=59123 address=T id=71 energy=-17370.412368016237 pbc="F F F"
C        0.12542541       0.11270554      -0.00029240      -0.11536341      -0.02562380       0.14178639      -0.09214561       1.11788396      -0.00082481
C        1.62503867       0.00847468       0.00156754       0.50896290      -0.57307545      -0.31004896      -0.06338950      -0.85342640       0.00215309
H        1.99473018      -0.50605055       0.89354482      -0.07678618       0.07922810       0.07371265       0.00320508       0.00300841       0.00517082
F        0.89788639       2.64149152      -0.00442372       0.25636831       0.46805135      -0.20123933      -0.23271315      -0.10403772      -0.00076135
Cl      -0.69504884      -1.53494042       0.00509220       1.63455500       0.50568368      -0.61487133       0.38207948      -0.16174994      -0.00050876
H       -0.22306082       0.64592326      -0.87549887       0.15259677       0.21154391       0.00126414      -0.00302890      -0.00293595      -0.00472561
H       -0.22431889       0.65275656       0.87018381       0.04974325      -0.08262537       0.16480964      -0.00396382      -0.00350204       0.00469305
H        1.88822962       1.08069343      -0.00059746      -0.30976339      -0.19282458       0.00104813       0.00778691       0.00253743      -0.00033365
H        1.99700981      -0.51031959      -0.88698835       0.11632765      -0.35148527      -0.12611325       0.00216950       0.00222225      -0.00486279
9
Properties=species:S:1:pos:R:3:momenta:R:3:forces:R:3 R1=H R2=H R3=CH3 R4=CH3 leaving_group=Cl nucleophile=Cl rxn=sn2 config=rcc label=H_H_CH3_CH3_Cl_Cl_sn2_rcc conformation=0 reactant_id=H_H_CH3_CH3_Cl_none_-_r product_id=H_H_CH3_CH3_none_Cl_sn2_pc mp2_author_energy=-29302.391748605172 mp2_my_energy=0 hash=59123 address=T id=71 energy=-17370.21315248764 pbc="F F F"
C        1.11573279       0.13789687      -0.30775877       0.37213354      -0.39172274      -0.41548426      -0.96359630      -0.15726863       0.14226025
C        2.61400557      -0.04918607      -0.45040882       0.57285204       0.37591958       0.03545879      -1.17545341       0.39155226       1.10616948
H        3.07164598      -0.37097079       0.52718181      -0.00611622      -0.01641383      -0.13730117      -0.32028811      -0.05046200      -1.14930679
F        1.67513880       2.72269606      -0.16996229       1.13743759      -0.70544300      -0.32248190       0.02191486      -0.74787548      -0.03807516
Cl       0.23289280      -1.52487033      -0.43984247       1.64329041       0.21656167      -0.75016275       0.54404216      -0.08095742       0.24355256
H        0.61903644       0.66558882      -1.11952900      -0.03053804      -0.05165683      -0.06207510       0.60931301       0.34208647       0.37285569
H        0.81801185       0.52812407       0.66786740       0.19492798      -0.09807243       0.04796580       0.18010331       0.13755662      -0.52947736
H        2.78189016       1.02029550      -0.58152949       0.12638461       0.33076136      -0.12058815       0.68167048       0.37222141      -0.12410234
H        2.83671256      -0.65267946      -1.32181516      -0.05704899       0.40939443       0.17366655       0.42229401      -0.20685324      -0.02387633
9
Properties=species:S:1:pos:R:3:momenta:R:3:forces:R:3 R1=H R2=H R3=CH3 R4=CH3 leaving_group=Cl nucleophile=Cl rxn=sn2 config=rcc label=H_H_CH3_CH3_Cl_Cl_sn2_rcc conformation=0 reactant_id=H_H_CH3_CH3_Cl_none_-_r product_id=H_H_CH3_CH3_none_Cl_sn2_pc mp2_author_energy=-29302.391748605172 mp2_my_energy=0 hash=59123 address=T id=71 energy=-17370.12660441904 pbc="F F F"
C        2.01921982       0.22999222      -0.69521392       1.35041280       0.19083321       0.00804080       0.01811753      -1.30495906      -0.46568602
C        3.50920333       0.03523382      -0.91465421       0.69165004       0.51578451      -0.31143477      -0.92189813       3.09149882      -0.75571132
H        3.74777089      -0.78719544      -0.34549912       0.17481510       0.15245959       0.08521455       1.47361062      -1.80389877       1.33188955
F        2.67863805       2.73674439      -0.36850535       0.30118387      -0.22692289      -0.22323825       0.28337799       0.92014776       0.10732527
Cl       1.34613316      -1.56150042      -0.91801874       0.34573578      -0.51967052      -0.77045333       0.05721298       1.19771068       0.04597471
H        1.64600582       0.90571758      -1.45968852      -0.00019918       0.00112022       0.11014581      -0.44817865      -0.24698806       0.23795416
H        1.74034283       0.57777364       0.29834137       0.02268045       0.03166711      -0.09357328       0.07892268      -0.18026793      -0.27115952
H        3.99741483       1.04023720      -0.64543872       0.27897750      -0.14490164      -0.02122493      -0.85537982      -1.45274226      -0.15824957
H        3.63799816      -0.15049074      -1.97842363       0.22752560       0.05912860      -0.11456245       0.31421479      -0.22050118      -0.07233726
9
Properties=species:S:1:pos:R:3:momenta:R:3:forces:R:3 R1=H R2=H R3=CH3 R4=CH3 leaving_group=Cl nucleophile=Cl rxn=sn2 config=rcc label=H_H_CH3_CH3_Cl_Cl_sn2_rcc conformation=0 reactant_id=H_H_CH3_CH3_Cl_none_-_r product_id=H_H_CH3_CH3_none_Cl_sn2_pc mp2_author_energy=-29302.391748605172 mp2_my_energy=0 hash=59123 address=T id=71 energy=-17370.21793950233 pbc="F F F"
C        2.99645337       0.19230950      -1.00058688      -0.35627504      -0.35852802       0.05690686       1.00827960       1.06781632      -0.10768928
C        4.46544843       0.16025914      -1.39770532      -0.12023626      -0.32685681      -0.25246338      -0.14938662      -3.59146794       0.20645733
H        5.01721505      -0.62213681      -0.76582154       0.24585598       0.06382937      -0.02042388      -0.68391405       1.12463059      -0.61155825
F        3.51897573       2.56441863      -0.58231779       1.06531986       0.54350625      -0.26208866       0.01294585       0.41733588       0.17671637
Cl       2.36675533      -1.45642987      -1.37341103       2.28203212       0.48018255      -0.90117235      -0.59151856      -1.75565426      -0.13382343
H        2.41325537       0.86896926      -1.60522603      -0.06625243      -0.00309077       0.22567537       0.15972612       0.31360482       0.32661611
H        2.90641173       0.37091901       0.06098544      -0.11822784      -0.24020251      -0.03763230      -0.32578813       0.25179540      -0.05401263
H        4.85122919       1.11674212      -1.24794492       0.22930239      -0.02765674      -0.13380516       0.46402125       1.68885405       0.17422708
H        4.55709584      -0.23796310      -2.41961058       0.22982422      -0.07171038      -0.00551782       0.10563454       0.48308514       0.02306670
9
Properties=species:S:1:pos:R:3:momenta:R:3:forces:R:3 R1=H R2=H R3=CH3 R4=CH3 leaving_group=Cl nucleophile=Cl rxn=sn2 config=rcc label=H_H_CH3_CH3_Cl_Cl_sn2_rcc conformation=0 reactant_id=H_H_CH3_CH3_Cl_none_-_r product_id=H_H_CH3_CH3_none_Cl_sn2_pc mp2_author_energy=-29302.391748605172 mp2_my_energy=0 hash=59123 address=T id=71 energy=-17370.11746316584 pbc="F F F"
C        4.06608259       0.25338225      -1.39150329       1.35723853       0.72499814      -0.62181657       2.04874958       1.00926160       0.05442254
C        5.54826358       0.32550476      -1.86349342       0.67308882       0.18734528      -0.38423413      -0.37649382       1.25815376      -0.21113913
H        6.23516962      -0.26873030      -1.27831644       0.04692685      -0.15637490       0.18435327      -0.00540547      -0.44417828       0.29760703
F        4.42804480       2.46245207      -0.78449900       0.01196351      -0.21901481       0.21437676      -0.18581313      -0.32105898       0.01880738
Cl       3.37649423      -1.46260657      -1.84501587       1.02671648      -0.00423193      -0.30063014       0.04639556      -1.02402434      -0.41418027
H        3.47249652       0.92041871      -1.96045024      -0.03259420      -0.02458261      -0.00661090      -0.54129017       0.52876948       0.06564901
H        3.93801313       0.25155006      -0.31875929      -0.04468059      -0.20988190      -0.07780182       0.07906698       0.54921607      -0.19878824
H        5.82838045       1.41974539      -1.72991307       0.20291896      -0.26923501      -0.32325462      -0.68143554      -1.33543769       0.10848011
H        5.69292343       0.08394082      -2.92924807      -0.03035773       0.02729195       0.05576402      -0.38377400      -0.22070161       0.27914156
9
Properties=species:S:1:pos:R:3:momenta:R:3:forces:R:3 R1=H R2=H R3=CH3 R4=CH3 leaving_group=Cl nucleophile=Cl rxn=sn2 config=rcc label=H_H_CH3_CH3_Cl_Cl_sn2_rcc conformation=0 reactant_id=H_H_CH3_CH3_Cl_none_-_r product_id=H_H_CH3_CH3_none_Cl_sn2_pc mp2_author_energy=-29302.391748605172 mp2_my_energy=0 hash=59123 address=T id=71 energy=-17370.088341318096 pbc="F F F"
C        5.03840507       0.50373978      -1.62880585       0.55916034       0.01720291      -0.09704273       0.06225631      -0.29528616       0.58838764
C        6.37959800       0.47333308      -2.24698147      -0.16891240       0.95904812       0.16629370      -0.39988621       1.38477978      -1.15089341
H        6.94361168      -0.28356887      -1.74431686      -0.01279828      -0.02400990      -0.06414012       0.71820925      -0.33551361      -0.07912887
F        5.39200267       2.49321299      -0.97683472       1.20483244      -0.15252762      -0.63870956      -0.08163621      -0.04868912       0.08545721
Cl       4.36451558      -1.59087473      -2.36274380       1.00166112      -0.94297293      -0.85038568       0.23120555       0.75809686       0.36119359
H        4.26799783       1.08248637      -2.06437807       0.12028122       0.12902290       0.23440918      -0.51544992      -0.01715012      -0.21948548
H        5.02544520       0.32438262      -0.56401029      -0.09192236       0.01712807      -0.10040734      -0.44514407      -0.12520804      -0.20953704
H        6.71318506       1.52346217      -2.06259961       0.02054180       0.10221447       0.27321922       0.09626373      -1.02713001       0.09015300
H        6.28135357       0.32289852      -3.33823610      -0.01816692      -0.05925323       0.05095042       0.33418158      -0.29389958       0.53385337
9
Properties=species:S:1:pos:R:3:momenta:R:3:forces:R:3 R1=H R2=H R3=CH3 R4=CH3 leaving_group=Cl nucleophile=Cl rxn=sn2 config=rcc label=H_H_CH3_CH3_Cl_Cl_sn2_rcc conformation=0 reactant_id=H_H_CH3_CH3_Cl_none_-_r product_id=H_H_CH3_CH3_none_Cl_sn2_pc mp2_author_energy=-29302.391748605172 mp2_my_energy=0 hash=59123 address=T id=71 energy=-17370.384328704025 pbc="F F F"
C        6.18271861       0.71368511      -2.00371260       0.33868537       0.55193851      -0.41797983      -0.95973349      -0.09024021       0.14166949
C        7.42200029       0.63103463      -2.78103250       0.94670937       1.26610778      -0.08075452       1.08050926      -0.30112871      -1.25066555
H        8.03003614      -0.21897783      -2.48683365       0.01997067      -0.06213567      -0.02477762      -0.07406478      -0.39185293       0.14976977
F        6.34686409       2.40585439      -1.14204604       0.86575475      -1.48103084      -0.52953544       0.25941872       0.43602834      -0.23870321
Cl       5.44588280      -1.62778740      -2.86613473       1.16917077       0.28794095      -0.23569697       0.08833581       0.33453279       0.16981336
H        5.25651385       0.94017591      -2.50221944       0.08528317      -0.36453292      -0.18644542      -0.07862775      -0.04579595       0.11720318
H        6.13184467       0.38503871      -0.99170983       0.23041431      -0.05569724      -0.06137078      -0.07741490      -0.68614276       0.07375308
H        8.06393200       1.49941402      -2.62039079      -0.02206116       0.07646886      -0.04462627      -0.43023328       0.30772893      -0.11678598
H        7.21096291       0.46316975      -3.87053449       0.30162910      -0.15004276       0.03715499       0.19181041       0.43687051       0.95394585
9
Properties=species:S:1:pos:R:3:momenta:R:3:forces:R:3 R1=H R2=H R3=CH3 R4=CH3 leaving_group=Cl nucleophile=Cl rxn=sn2 config=rcc label=H_H_CH3_CH3_Cl_Cl_sn2_rcc conformation=0 reactant_id=H_H_CH3_CH3_Cl_none_-_r product_id=H_H_CH3_CH3_none_Cl_sn2_pc mp2_author_energy=-29302.391748605172 mp2_my_energy=0 hash=59123 address=T id=71 energy=-17370.925279198826 pbc="F F F"
C        7.39537257       0.82274737      -2.41819481      -0.04166654      -0.35111426       0.43936891      -0.63416206       0.82069933       0.79418380
C        8.58233987       0.90204746      -3.26003429      -0.09454075       0.15474413       0.21078100       0.95362455      -0.25282141      -0.39470529
H        9.42574135       1.09243237      -2.58960469       0.04192053      -0.20890609      -0.05787705      -0.05300441       0.60886892      -0.09752567
F        7.53917368       2.24099623      -1.40432968       1.41398433      -0.70287384      -1.32156520       0.02612241      -1.27526549      -1.02001754
Cl       6.66699655      -1.63530619      -3.46818253       2.40842226       0.41406751      -0.78000018       0.07607178       0.35144494       0.10891893
H        6.38843851       0.96737669      -2.77031194       0.09759455       0.47403295      -0.06059636       0.14361891       0.03341808      -0.13767596
H        7.52276176       0.04285108      -1.73328386       0.04090329      -0.07799715       0.09369219      -0.46728621      -0.75146396       1.30906926
H        8.47674518       1.65285840      -4.03572447       0.09050810       0.11182571      -0.05522791       0.37314947       0.08634073      -0.22512155
H        8.79520321      -0.09713432      -3.65896082       0.06767036       0.25680265      -0.04761859      -0.41813445       0.37877885      -0.33712598
9
Properties=species:S:1:pos:R:3:momenta:R:3:forces:R:3 R1=H R2=H R3=CH3 R4=CH3 leaving_group=Cl nucleophile=Cl rxn=sn2 config=rcc label=H_H_CH3_CH3_Cl_Cl_sn2_rcc conformation=0 reactant_id=H_H_CH3_CH3_Cl_none_-_r product_id=H_H_CH3_CH3_none_Cl_sn2_pc mp2_author_energy=-29302.391748605172 mp2_my_energy=0 hash=59123 address=T id=71 energy=-17371.461923835366 pbc="F F F"
C        8.58598160       0.73292931      -2.57458638       0.39125540      -0.75561158      -0.00093143       0.06747023       0.86523626      -2.52934961
C        9.60659983       1.02381588      -3.73330638       1.01296954       0.75021362      -0.18451649      -0.21490675       0.44745809       1.73546006
H       10.33841732       1.70728962      -3.23519177       0.12301041       0.13335278       0.01835043      -0.24733642      -0.57169105      -0.63152959
F        8.73514079       2.11657516      -1.84556598       0.54393918      -0.11900738      -0.58666219      -0.56110757      -0.07539793       0.40337941
Cl       7.94357096      -1.54011337      -4.07219450       1.18535215      -0.29521729      -0.40470550      -0.08412076      -0.37801879      -0.04018096
H        7.54247840       0.61561266      -2.94212209      -0.01860826       0.38155542       0.02958136       0.97817451       0.35697444       0.91841661
H        8.91175444       0.01968810      -1.84440191       0.09322340      -0.26793765      -0.06515518      -0.02936700      -0.29383865       0.14575669
H        9.13611764       1.57401133      -4.56267451       0.10817298       0.13408420      -0.04777044       0.04019688      -0.34390390       0.26422206
H       10.06058441       0.09810300      -4.06449415      -0.09995460       0.09712923      -0.06831753       0.05099686      -0.00681848      -0.26617467
9
Properties=species:S:1:pos:R:3:momenta:R:3:forces:R:3 R1=H R2=H R3=CH3 R4=CH3 leaving_group=Cl nucleophile=Cl rxn=sn2 config=rcc label=H_H_CH3_CH3_Cl_Cl_sn2_rcc conformation=0 reactant_id=H_H_CH3_CH3_Cl_none_-_r product_id=H_H_CH3_CH3_none_Cl_sn2_pc mp2_author_energy=-29302.391748605172 mp2_my_energy=0 hash=59123 address=T id=71 energy=-17371.907814931572 pbc="F F F"
C        9.61298669       0.89013016      -3.02161037       0.64235664       0.29700826      -0.98506794       1.05286653      -2.01168731      -1.55941242
C       10.65394970       1.33324768      -4.06156633      -0.15627759       0.39321762      -0.38296239      -1.05456471       2.01523817       0.25111514
H       11.60251263       1.70042697      -3.66073242       0.15902877      -0.26369379       0.02625275       0.01565592      -0.59135159       0.31998211
F        9.43959751       1.90199008      -2.04389869       0.32328809      -0.08356452       0.88741718      -0.10483539       0.86688874       0.49377779
Cl       8.79433295      -1.58098048      -4.44874950       0.96035869      -0.66913446      -0.11351877       0.10539864      -0.07900069      -0.09195967
H        8.69009914       0.68957348      -3.56409463       0.23268683       0.10203961      -0.29843261      -0.11715527       0.37089187       0.63859970
H        9.92383518      -0.03795094      -2.50405478      -0.14231176       0.02380377      -0.14427552      -0.19906158       0.64760001      -0.19487507
H       10.22782466       2.25057693      -4.54263551       0.31069938       0.17971962       0.12057250       0.17944582      -0.57736758       0.19454291
H       10.77007766       0.61612600      -4.85315828       0.11605515       0.06349662      -0.06957585       0.12225004      -0.64121161      -0.05177048
9
Properties=species:S:1:pos:R:3:momenta:R:3:forces:R:3 R1=H R2=H R3=CH3 R4=CH3 leaving_group=Cl nucleophile=Cl rxn=sn2 config=rcc label=H_H_CH3_CH3_Cl_Cl_sn2_rcc conformation=0 reactant_id=H_H_CH3_CH3_Cl_none_-_r product_id=H_H_CH3_CH3_none_Cl_sn2_pc mp2_author_energy=-29302.391748605172 mp2_my_energy=0 hash=59123 address=T id=71 energy=-17371.771520083126 pbc="F F F"
C       10.19110924       1.05515527      -3.35209862      -0.43612608       0.02400663      -0.47890571       0.62432891      -0.65274174      -2.24906151
C       11.39116941       1.44856874      -4.19717419       0.08824231       0.21376772       0.76655171       0.43370100      -0.17199339       1.36728752
H       12.21962122       1.08454498      -3.58502073      -0.08776144      -0.22245920      -0.23872056       0.43769423       0.36295323      -0.19251900
F       10.23588487       1.81765299      -2.28746552       1.56064240       0.00460959      -0.72718607      -0.24616825       1.87775191       2.22044445
Cl       9.57024374      -1.61693168      -4.82185686       1.52509457       0.01741394      -0.41435837       0.13949101       0.45624350       0.12488120
H        9.30467879       1.20942183      -3.92713888       0.05856793       0.12643519       0.10689411      -1.02628460       0.08968068      -0.22174885
H       10.22525516       0.04582416      -3.03745759      -0.31091460      -0.13018849      -0.02486274       0.04788242      -1.19737850      -0.10048452
H       11.45779051       2.55223514      -4.27438885      -0.06035545      -0.02681987       0.06483394      -0.13947281      -0.60056747      -0.17408045
H       11.43820167       0.91687888      -5.12356335      -0.02129930       0.03385105       0.03708489      -0.27117190      -0.16394822      -0.77471884
9
Properties=species:S:1:pos:R:3:momenta:R:3:forces:R:3 R1=H R2=H R3=CH3 R4=CH3 leaving_group=Cl nucleophile=Cl rxn=sn2 config=rcc label=H_H_CH3_CH3_Cl_Cl_sn2_rcc conformation=0 reactant_id=H_H_CH3_CH3_Cl_none_-_r product_id=H_H_CH3_CH3_none_Cl_sn2_pc mp2_author_energy=-29302.391748605172 mp2_my_energy=0 hash=59123 address=T id=71 energy=-17371.63580839244 pbc="F F F"
C       10.83840888       1.08682909      -3.58236896      -0.21650614       0.99312807      -0.09751748       1.40884376       0.17291127       3.54093563
C       12.01101315       1.25959912      -4.51374168       0.21699154      -0.63591611      -0.40402537       0.32379139      -0.13477896       0.08851112
H       12.94714160       0.71197166      -4.26598550       0.06179940       0.00719146      -0.08884000      -0.69955873       0.56721276       0.36732688
F       10.97825298       1.83738422      -2.42133523       0.46484679      -0.81191777      -0.25255264      -0.24100637      -1.74729858      -3.80124173
Cl      10.42223285      -1.52913415      -5.20402520       1.95086777       1.00500620      -0.16745615      -0.11824733       0.39144029       0.29290243
H        9.94034465       1.32625143      -4.08482887       0.31190694      -0.05056360       0.07560407      -1.14468178       0.79341882      -0.44195277
H       10.71821669       0.06788286      -3.28378152       0.25409830      -0.12396489      -0.08196236       0.05707887      -0.67372628       0.13792426
H       12.15048634       2.31274642      -4.62886707       0.18634966      -0.21402941      -0.14307147       0.65649463       0.96345369       0.03635968
H       11.72954536       0.89015135      -5.48758226      -0.20687473      -0.11591211      -0.02637651      -0.24271443      -0.33263300      -0.22076549
9
Properties=species:S:1:pos:R:3:momenta:R:3:forces:R:3 R1=H R2=H R3=CH3 R4=CH3 leaving_group=Cl nucleophile=Cl rxn=sn2 config=rcc label=H_H_CH3_CH3_Cl_Cl_sn2_rcc conformation=0 reactant_id=H_H_CH3_CH3_Cl_none_-_r product_id=H_H_CH3_CH3_none_Cl_sn2_pc mp2_author_energy=-29302.391748605172 mp2_my_energy=0 hash=59123 address=T id=71 energy=-17371.707121617514 pbc="F F F"
C       11.53050250       1.00737466      -3.83670460       0.76414736      -0.73447534      -1.24111127       1.61563317      -2.36507616      -1.68960908
C       12.65845373       1.37044883      -4.78866164      -0.03323639       0.19137265       0.11659582      -1.28308393       0.88489920      -0.25458478
H       13.56937860       1.02076447      -4.37175779       0.06330616       0.14979850       0.01908333       0.94603700      -0.30314494       0.44045835
F       11.83990980       1.67260620      -2.76339068       0.49561291      -0.58092172      -0.50831653       0.25781797       2.19558854       3.22087839
Cl      11.28913241      -1.42574544      -5.55020559       1.50295193       1.18890442       0.66838887      -0.24772692      -0.43951296      -0.29267008
H       10.54996862       1.20376968      -4.16189312       0.09025676       0.16916928       0.24822737      -1.28109273       0.64710322      -0.77366860
H       11.54920207      -0.04723172      -3.60375641      -0.12193939      -0.13935837      -0.40054693      -0.00725654      -0.25685474      -0.07209668
H       12.69425885       2.46695435      -4.85764025       0.11642623      -0.27209500       0.05322292       0.03339414      -0.23326693      -0.06342920
H       12.50047895       0.91887793      -5.74786487       0.01203838       0.07827900      -0.08920256      -0.03372215      -0.12973524      -0.51527831
9
Properties=species:S:1:pos:R:3:momenta:R:3:forces:R:3 R1=H R2=H R3=CH3 R4=CH3 leaving_group=Cl nucleophile=Cl rxn=sn2 config=rcc label=H_H_CH3_CH3_Cl_Cl_sn2_rcc conformation=0 reactant_id=H_H_CH3_CH3_Cl_none_-_r product_id=H_H_CH3_CH3_none_Cl_sn2_pc mp2_author_energy=-29302.391748605172 mp2_my_energy=0 hash=59123 address=T id=71 energy=-17371.69482136217 pbc="F F F"
C       12.46518620       0.99814602      -4.16516500      -0.03610452       0.51144200      -0.63008042       0.12249255      -1.36348390      -0.48086546
C       13.31480695       1.67781571      -5.21243716       1.32221598       0.38627858      -0.09458750      -0.04640751      -0.38272220       0.10271254
H       14.36080802       1.41201109      -5.11738609      -0.09210684      -0.00865916      -0.21535295       0.38086343       0.12131517       0.07410854
F       12.58985678       1.44758477      -2.91441075       0.11767112      -0.76113258      -0.40395997       0.76997441       0.21518670      -0.04905853
Cl      12.13501281      -1.40001579      -5.88762405       1.09914542      -0.10471563      -0.06876650      -0.13755237      -0.41742997      -0.37949783
H       11.45834691       1.18920139      -4.44939891       0.30889194      -0.01515262       0.43771639      -1.07209024      -0.11067684      -0.26367070
H       12.62497594      -0.11505296      -4.26650608       0.14442145      -0.09120669      -0.13286089      -0.18473190       1.20975446       0.66236849
H       13.18659616       2.74553551      -5.17400718      -0.05580257       0.17038055       0.00841763       0.01451494       0.60727514       0.02129620
H       12.95694888       1.28250857      -6.17499332      -0.20744068      -0.04162341       0.07906982       0.15293669       0.12078144       0.31260676
9
Properties=species:S:1:pos:R:3:momenta:R:3:forces:R:3 R1=H R2=H R3=CH3 R4=CH3 leaving_group=Cl nucleophile=Cl rxn=sn2 config=rcc label=H_H_CH3_CH3_Cl_Cl_sn2_rcc conformation=0 reactant_id=H_H_CH3_CH3_Cl_none_-_r product_id=H_H_CH3_CH3_none_Cl_sn2_pc mp2_author_energy=-29302.391748605172 mp2_my_energy=0 hash=59123 address=T id=71 energy=-17371.673638870274 pbc="F F F"
C       12.97280390       0.97769686      -4.36897067      -0.17098233       0.40659144       0.18035387       2.06332447      -1.06641157      -0.55895335
C       13.79997307       1.81155688      -5.30127952      -0.01444673      -0.61437279       0.30667832       1.60960330      -0.55572532      -0.88440347
H       14.90919117       1.69260933      -5.10259210       0.04743384       0.10604445       0.09703074      -1.14760470      -0.32787616      -0.18000203
F       13.24927344       1.43374772      -3.14741573       0.86373873       0.46992714      -0.48734820      -0.53633313      -0.17377585       0.47691687
Cl      12.74574892      -1.42218814      -6.18922479       0.86758851       0.01589688      -0.81241029      -0.09706010      -0.16780507      -0.42008123
H       11.93138705       1.06576788      -4.63474361       0.01093673      -0.07348590      -0.05876678      -0.43575117      -0.12227267       0.27674545
H       13.33458025      -0.07965006      -4.53827683       0.23621980      -0.16640836      -0.04781141      -0.90798659       1.22407083       0.93016456
H       13.64802423       2.84919213      -5.13218659       0.01630918       0.01798838       0.10409110      -0.65327804       1.15422532       0.09654719
H       13.59213210       1.52856250      -6.34217310       0.03093049      -0.12907671      -0.02242738       0.10508597       0.03557048       0.26306599
9
Properties=species:S:1:pos:R:3:momenta:R:3:forces:R:3 R1=H R2=H R3=CH3 R4=CH3 leaving_group=Cl nucleophile=Cl rxn=sn2 config=rcc label=H_H_CH3_CH3_Cl_Cl_sn2_rcc conformation=0 reactant_id=H_H_CH3_CH3_Cl_none_-_r product_id=H_H_CH3_CH3_none_Cl_sn2_pc mp2_author_energy=-29302.391748605172 mp2_my_energy=0 hash=59123 address=T id=71 energy=-17371.757234494027 pbc="F F F"
C       13.59275183       0.94286944      -4.48514474       0.75591222      -0.24386002       0.45939534       1.69239280      -1.17398540       0.71560081
C       14.39606863       1.61051863      -5.58159976      -0.30371027       0.15853476      -0.06814879      -0.13048153       0.14527125      -0.37166965
H       15.49493003       1.53701712      -5.53758306       0.22830293      -0.06243229      -0.03141698      -0.46227241      -0.26305432       0.38952191
F       13.89131714       1.49253376      -3.28849680       0.42419635       0.68833322       0.19061367      -0.28733604      -0.30757587      -0.88923730
Cl      13.46348863      -1.32313108      -6.55443462       0.91952122      -0.03082055      -1.15789858      -0.25740624      -0.32203987       0.02301188
H       12.56442078       1.10966176      -4.70725982       0.05084077      -0.00930630      -0.23847341      -1.01213438       0.08700452      -0.02946197
H       13.74003703      -0.16826036      -4.46348936       0.05804201      -0.29942795       0.18372488       0.06291308       1.40812628       0.10713085
H       14.12858826       2.66690283      -5.67966547       0.09107238      -0.19448817      -0.20153262      -0.00373488      -0.01443079       0.15307502
H       14.04246652       1.08376530      -6.47248907       0.08410447       0.03394694      -0.04186890       0.39805960       0.44068420      -0.09797156
9
Properties=species:S:1:pos:R:3:momenta:R:3:forces:R:3 R1=H R2=H R3=CH3 R4=CH3 leaving_group=Cl nucleophile=Cl rxn=sn2 config=rcc label=H_H_CH3_CH3_Cl_Cl_sn2_rcc conformation=0 reactant_id=H_H_CH3_CH3_Cl_none_-_r product_id=H_H_CH3_CH3_none_Cl_sn2_pc mp2_author_energy=-29302.391748605172 mp2_my_energy=0 hash=59123 address=T id=71 energy=-17371.567680402455 pbc="F F F"
C       14.38062870       0.86034199      -4.80869753       0.76271895      -0.31710357      -0.24102100       3.38584987      -0.46257531       2.08915430
C       15.17816699       1.71741112      -5.72223941       0.67128724       0.72246363      -0.03259778      -1.45551208       0.75136324      -1.25254093
H       16.16917409       1.44071133      -5.46592199       0.15404930       0.14510378      -0.09471681       1.20011550       0.32258157      -0.08825761
F       14.74698678       1.46688336      -3.65666714       0.37075585       0.44444411       0.35601040      -1.04178414      -0.82176516       0.00191115
Cl      14.33751393      -1.28550791      -6.96151993       1.01847745      -0.48156177      -0.94024503      -0.11039115       0.01235367      -0.04736835
H       13.34976998       0.82352078      -4.89382623       0.02384842       0.00298483      -0.16400903      -2.00098796       0.20391225      -0.41891947
H       14.77687166      -0.18201063      -4.81770028       0.31701058      -0.39695310      -0.23330691      -0.53507584       0.91955029       0.00134262