9
Properties=species:S:1:pos:R:3:momenta:R:3:forces:R:3 R1=H R2=H R3=CH3 R4=CH3 leaving_group=Cl nucleophile=Cl rxn=sn2 config=rcc label=H_H_CH3_CH3_Cl_Cl_sn2_rcc conformation=0 reactant_id=H_H_CH3_CH3_Cl_none_-_r product_id=H_H_CH3_CH3_none_Cl_sn2_pc mp2_author_energy=-29302.391748605172 mp2_my_energy=0 hash=59123 address=T id=71 energy=-17370.412368016237 pbc="F F F"
C        0.12542541       0.11270554      -0.00029240       0.20600140      -0.28380027      -0.55684072      -0.09214561       1.11788396      -0.00082481
C        1.62503867       0.00847468       0.00156754       0.32459042      -1.10703223       0.01981200      -0.06338950      -0.85342640       0.00215309
H        1.99473018      -0.50605055       0.89354482      -0.12722974      -0.10696903       0.24038365       0.00320508       0.00300841       0.00517082
F        0.89788639       2.64149152      -0.00442372       0.69389831       0.17464418       1.72910731      -0.23271315      -0.10403772      -0.00076135
Cl      -0.69504884      -1.53494042       0.00509220       0.41385549      -1.47217534       1.00151975       0.38207948      -0.16174994      -0.00050876
H       -0.22306082       0.64592326      -0.87549887       0.05011431      -0.13570611       0.10765616      -0.00302890      -0.00293595      -0.00472561
H       -0.22431889       0.65275656       0.87018381      -0.09108909       0.07781594       0.08864658      -0.00396382      -0.00350204       0.00469305
H        1.88822962       1.08069343      -0.00059746      -0.05966805      -0.12794747      -0.01075305       0.00778691       0.00253743      -0.00033365
H        1.99700981      -0.51031959      -0.88698835      -0.10997641       0.06761947      -0.17777969       0.00216950       0.00222225      -0.00486279
9
Properties=species:S:1:pos:R:3:momenta:R:3:forces:R:3 R1=H R2=H R3=CH3 R4=CH3 leaving_group=Cl nucleophile=Cl rxn=sn2 config=rcc label=H_H_CH3_CH3_Cl_Cl_sn2_rcc conformation=0 reactant_id=H_H_CH3_CH3_Cl_none_-_r product_id=H_H_CH3_CH3_none_Cl_sn2_pc mp2_author_energy=-29302.391748605172 mp2_my_energy=0 hash=59123 address=T id=71 energy=-17370.23984003364 pbc="F F F"
C        0.63298577      -0.83537404       0.78714510       0.22929809      -0.63696523       0.25145090       0.45991058       1.21584613      -1.48766875
C        2.03467167      -1.10086932       0.22748802       0.49896293       0.08461515       0.54844206      -1.34321991       0.59573744      -0.09712193
H        2.44702484      -2.01452296       0.64911303       0.21965800       0.21006879      -0.10729669       0.23703601      -0.06026960      -0.05995092
F        1.59223287       1.36606045       1.88892090       0.66406513      -2.52122645       1.34366985       0.14779230      -0.39346262      -0.31293894
Cl      -0.45859606      -2.21822132       0.43114432      -0.00126901      -0.91437576       1.07944569      -0.33474445      -0.84215261      -0.28211660
H        0.23078357       0.06054335       0.26308963       0.13915869      -0.20136979       0.07924884       0.24677159      -0.69730679       0.85470052
H        0.73441681      -0.66550977       1.82498532       0.04602982      -0.20488622       0.11588584      -0.33297077       0.30502692       0.95136493
H        2.43910831      -0.17188690       0.65359378       0.04473070       0.06748881       0.11177735       0.65488844      -0.04637491      -0.25837457
H        2.00194656      -1.11770189      -0.88464115       0.04732366      -0.11301165       0.12211828       0.26453623      -0.07704397       0.69210627
9
Properties=species:S:1:pos:R:3:momenta:R:3:forces:R:3 R1=H R2=H R3=CH3 R4=CH3 leaving_group=Cl nucleophile=Cl rxn=sn2 config=rcc label=H_H_CH3_CH3_Cl_Cl_sn2_rcc conformation=0 reactant_id=H_H_CH3_CH3_Cl_none_-_r product_id=H_H_CH3_CH3_none_Cl_sn2_pc mp2_author_energy=-29302.391748605172 mp2_my_energy=0 hash=59123 address=T id=71 energy=-17370.357968478515 pbc="F F F"
C        0.93675242      -1.69553012       1.73563773      -0.56930499      -0.72751257       0.28371124      -1.02434321       0.78424100      -0.66898936
C        2.11297579      -1.53896987       0.84537113       0.16771826      -0.26728675       0.57960903       0.71262021       0.11142588       0.00036073
H        2.66404914      -2.47606636       0.78591999       0.08762575      -0.06523974      -0.05005123       0.07472893      -0.14421432      -0.12793042
F        2.45412550      -0.17731025       3.27636641       0.65835579      -1.13819131       0.90355603      -0.26608902      -0.16939230      -0.07625531
Cl      -0.18293771      -2.85318013       0.71737214       0.75258046      -0.65588813       0.60576574       0.25167216       0.26188488       0.82788747
H        0.35616341      -0.76590532       1.85340140       0.01340525       0.05206299       0.16549533       0.39077052      -0.53947540      -0.01869199
H        1.18588890      -2.06317245       2.71015995      -0.01879963       0.08439984      -0.05302310      -0.05715586      -0.43490378       0.30294011
H        2.73263495      -0.79114107       1.35762452      -0.00083304      -0.06906854      -0.17271962      -0.11064635       0.00512727      -0.00810822
H        1.80914808      -1.23977949      -0.15205069       0.05306865       0.22418969      -0.11476678       0.02844261       0.12530676      -0.23121302
9
Properties=species:S:1:pos:R:3:momenta:R:3:forces:R:3 R1=H R2=H R3=CH3 R4=CH3 leaving_group=Cl nucleophile=Cl rxn=sn2 config=rcc label=H_H_CH3_CH3_Cl_Cl_sn2_rcc conformation=0 reactant_id=H_H_CH3_CH3_Cl_none_-_r product_id=H_H_CH3_CH3_none_Cl_sn2_pc mp2_author_energy=-29302.391748605172 mp2_my_energy=0 hash=59123 address=T id=71 energy=-17370.351521926907 pbc="F F F"
C        1.51085058      -2.78521228       2.51444757       0.53118589      -1.05245432       1.39391574      -0.39042129      -0.11058703      -0.54795168
C        2.44196808      -1.89877391       1.72173492      -0.71601302      -0.46911627       0.57080752       0.28174073      -0.11600811      -0.42372006
H        2.88188198      -2.42687548       0.86093676      -0.11702983       0.07401664       0.04211674      -0.30661341       0.02514565       0.16294019
F        2.98342127      -2.37029506       4.49646626       0.79881914      -1.23710206       0.93076472      -0.07133069       0.03911563      -0.28277361
Cl       0.20012522      -3.40243903       1.32573981       0.52603871      -0.25253274      -0.36423099       0.11946354       0.04921664      -0.37977694
H        0.91635683      -2.29051140       3.23330888      -0.03580144      -0.04005011       0.14387495      -0.05434916       0.73333105       0.77906423
H        1.91797135      -3.66167915       2.97120308       0.13029065       0.09517422      -0.00215688       0.63411479      -0.06613603      -0.01607439
H        3.25622101      -1.63612749       2.38776037       0.20717789      -0.04808807      -0.03991071      -0.09194952      -0.05435312       0.49446822
H        1.97634492      -0.96979123       1.34884925       0.09111306      -0.24167405      -0.01697648      -0.12065500      -0.49972466       0.21382403
9
Properties=species:S:1:pos:R:3:momenta:R:3:forces:R:3 R1=H R2=H R3=CH3 R4=CH3 leaving_group=Cl nucleophile=Cl rxn=sn2 config=rcc label=H_H_CH3_CH3_Cl_Cl_sn2_rcc conformation=0 reactant_id=H_H_CH3_CH3_Cl_none_-_r product_id=H_H_CH3_CH3_none_Cl_sn2_pc mp2_author_energy=-29302.391748605172 mp2_my_energy=0 hash=59123 address=T id=71 energy=-17370.178993295205 pbc="F F F"
C        2.00932216      -3.81983112       3.24009594       1.09837459      -0.16381568       0.14096809       1.38045180      -1.41185557      -0.06329934
C        2.69302773      -2.50332238       3.32042420       0.01745921      -0.18283265       0.96233412      -2.12131092       1.96283826      -1.80735953
H        3.17940453      -2.20043226       2.37843172       0.01622994      -0.28876507      -0.13283320      -0.08026029      -0.08896856       0.31190549
F        3.38092365      -4.43232467       5.06579693      -0.19486549      -2.11503185       0.37734550       0.49520449      -0.18222500       0.55410569
Cl       0.69930079      -3.90675039       1.96238239       0.95998702      -0.97694081       1.75260593      -0.15670279       0.64390530      -0.26016814
H        1.66518477      -4.04603482       4.20734908       0.00366748      -0.10749623       0.00309718      -1.08553976      -0.41291208       0.74272239
H        2.72407219      -4.60705403       3.02454171       0.01487395       0.00159268      -0.17589314      -0.14956256       0.05739648      -0.10587675
H        3.35621809      -2.59254557       4.13417043       0.00070175      -0.01785190       0.15590202       0.97666741      -0.34401054       0.87460367
H        1.90498811      -1.74434746       3.56937952      -0.17163563      -0.05778250       0.19241529       0.74105262      -0.22416829      -0.24663348
9
Properties=species:S:1:pos:R:3:momenta:R:3:forces:R:3 R1=H R2=H R3=CH3 R4=CH3 leaving_group=Cl nucleophile=Cl rxn=sn2 config=rcc label=H_H_CH3_CH3_Cl_Cl_sn2_rcc conformation=0 reactant_id=H_H_CH3_CH3_Cl_none_-_r product_id=H_H_CH3_CH3_none_Cl_sn2_pc mp2_author_energy=-29302.391748605172 mp2_my_energy=0 hash=59123 address=T id=71 energy=-17370.124189342758 pbc="F F F"
C        2.51910834      -5.08748924       4.09127803      -0.02865425      -0.29982261       0.57902821       0.20505845       2.80218676      -0.81703894
C        2.70410742      -3.88514800       5.08319606      -0.01620897      -0.63324636       1.37195455       0.74207473      -1.81892509      -1.19247093
H        3.46735963      -3.18258322       4.74259329       0.09580554       0.04351889       0.34596737      -0.31153653       0.03107169      -0.44214005
F        3.80535109      -6.25865587       5.46022066       0.57534724      -2.00960574      -0.07509021       0.63261065      -0.56538114       0.52421039
Cl       1.34695167      -4.25108828       2.70755529       1.17650460      -1.22305067       1.04406576       0.54464920      -0.63142232       0.66150410
H        2.07499344      -5.97719102       4.44137554      -0.15093976      -0.09548371      -0.04848012      -0.89383176      -0.26978548       0.32174764
H        3.41106474      -5.34138072       3.54402039       0.13135251       0.01957881       0.15855812      -0.07918976       0.16297674      -0.04622376
H        3.14683323      -4.38081260       5.92363936      -0.01072743      -0.10825143      -0.06965634      -0.07498465      -0.19547154       0.72493597
H        1.77557524      -3.40367626       5.27580454       0.01695148       0.29743427       0.05340497      -0.76485033       0.48475037       0.26547558
9
Properties=species:S:1:pos:R:3:momenta:R:3:forces:R:3 R1=H R2=H R3=CH3 R4=CH3 leaving_group=Cl nucleophile=Cl rxn=sn2 config=rcc label=H_H_CH3_CH3_Cl_Cl_sn2_rcc conformation=0 reactant_id=H_H_CH3_CH3_Cl_none_-_r product_id=H_H_CH3_CH3_none_Cl_sn2_pc mp2_author_energy=-29302.391748605172 mp2_my_energy=0 hash=59123 address=T id=71 energy=-17370.044017319688 pbc="F F F"
C        3.00660831      -6.13589497       4.79706051       0.13088396       0.18795403       1.18028329      -0.19007449       1.04309160      -0.41233196
C        2.68145419      -5.77656812       6.23779803       0.31707986      -1.61851698       0.11280931      -0.16650033       1.30061906      -0.38605581
H        3.52939298      -5.17636367       6.59820563       0.20169681       0.03325895      -0.06160446      -0.14399267      -0.18676521       0.07495189
F        3.96013515      -7.69894646       5.73885934       0.14859528      -1.22991571       0.30022452       0.88207046      -1.21514963       0.23744414
Cl       2.13060542      -4.60001028       3.75244975       1.22212111      -0.54962001       1.73357037       0.09694406      -0.47909515       0.40212962
H        2.55421601      -6.98311475       4.33527744      -0.08251622      -0.13487493       0.09267015      -0.44322967      -0.09507124      -0.05504857
H        3.99369259      -5.93311653       4.40773653       0.18701634      -0.27855722       0.17626589      -0.06057220      -0.09323925       0.38413555
H        2.60567664      -6.65675291       6.86953202      -0.15113000      -0.23038139      -0.08744167      -0.00722079      -0.06347830      -0.30526296
H        1.79787877      -5.13328583       6.30828245      -0.17631564      -0.20619918      -0.07200364       0.03257564      -0.21091187       0.06003810
9
Properties=species:S:1:pos:R:3:momenta:R:3:forces:R:3 R1=H R2=H R3=CH3 R4=CH3 leaving_group=Cl nucleophile=Cl rxn=sn2 config=rcc label=H_H_CH3_CH3_Cl_Cl_sn2_rcc conformation=0 reactant_id=H_H_CH3_CH3_Cl_none_-_r product_id=H_H_CH3_CH3_none_Cl_sn2_pc mp2_author_energy=-29302.391748605172 mp2_my_energy=0 hash=59123 address=T id=71 energy=-17370.065591528608 pbc="F F F"
C        3.51698803      -7.11733888       5.56549725       0.08647160      -0.19401925      -0.09881462       0.10891461       0.32011906      -0.24926084
C        2.51080405      -7.22054787       6.68277253       0.10824683      -0.16144106       0.01298422       0.94540554      -0.77216469       0.29500004
H        2.70447688      -6.44682997       7.44102461      -0.11536313      -0.08749740       0.20252993      -0.26295001      -0.44156790      -0.21672787
F        4.02000084      -8.96966983       5.86590892       0.65024389      -1.70191124       0.59319149       0.31173011      -0.14583028       0.01522288
Cl       2.97915051      -5.16266786       5.08010419       0.77739074      -0.35650584       1.87478419       0.12287991       0.17121527      -0.38929611
H        3.32550142      -7.58122646       4.59899993      -0.17732873      -0.04399002      -0.00672307       0.01654421       0.59397010       0.45430342
H        4.53020736      -6.81322671       5.80169782       0.05919172      -0.02178844      -0.12891466      -0.22583474      -0.45842570      -0.16212880
H        2.62214925      -8.24352522       7.04689942      -0.09437173      -0.09754309      -0.25043818       0.02342189       0.33945876       0.44147068
H        1.53322527      -7.13856890       6.27539821      -0.16543551       0.13525345      -0.07875567      -1.04011153       0.39322539      -0.18858341
9
Properties=species:S:1:pos:R:3:momenta:R:3:forces:R:3 R1=H R2=H R3=CH3 R4=CH3 leaving_group=Cl nucleophile=Cl rxn=sn2 config=rcc label=H_H_CH3_CH3_Cl_Cl_sn2_rcc conformation=0 reactant_id=H_H_CH3_CH3_Cl_none_-_r product_id=H_H_CH3_CH3_none_Cl_sn2_pc mp2_author_energy=-29302.391748605172 mp2_my_energy=0 hash=59123 address=T id=71 energy=-17370.06766516558 pbc="F F F"
C        3.84575600      -8.26519847       6.35829195      -0.04772308      -1.03455642      -0.28227960       0.70780564       0.37938378      -0.53500878
C        2.43018802      -8.47120671       6.83181222       0.21839008      -0.43540602      -0.02017335       1.43364462       0.58852706      -0.02069614
H        2.43319022      -9.38254072       7.38505198       0.16494109      -0.08036484      -0.05627074      -0.08394147      -0.91252251       0.21444156
F        4.17463207      -9.96830428       6.02358140      -0.02494980      -1.46469822       0.51768706      -0.25450604      -0.04442698      -0.22017091
Cl       3.79703911      -5.89293354       6.49322721       1.30147510       0.11870253       2.68803695       0.01519028      -0.53515723       0.16019231
H        4.04681089      -7.88034203       5.37497797       0.09296553      -0.06254830       0.18307587      -0.14647784      -0.43176282      -0.09912334
H        4.72032115      -8.27362227       6.98247518      -0.25299342      -0.32409670       0.12777609      -0.39308733       0.49361173       0.51353834
H        1.83329302      -8.56053518       5.93893767       0.00958360      -0.06895614      -0.07419224      -0.63687255       0.00629192      -0.06907843
H        2.14517932      -7.67472728       7.49010518       0.22000821      -0.41564471       0.07381657      -0.64175531       0.45605505       0.05590538
9
Properties=species:S:1:pos:R:3:momenta:R:3:forces:R:3 R1=H R2=H R3=CH3 R4=CH3 leaving_group=Cl nucleophile=Cl rxn=sn2 config=rcc label=H_H_CH3_CH3_Cl_Cl_sn2_rcc conformation=0 reactant_id=H_H_CH3_CH3_Cl_none_-_r product_id=H_H_CH3_CH3_none_Cl_sn2_pc mp2_author_energy=-29302.391748605172 mp2_my_energy=0 hash=59123 address=T id=71 energy=-17370.56527374974 pbc="F F F"
C        3.86715523      -8.81653188       6.59354463       0.29473654       0.15495515       0.12341357      -0.03065701       2.15109892      -0.16778898
C        2.39646678      -8.96503437       6.82726339      -0.20832075      -0.20729606       0.02553771       0.72207719       0.35556921       0.59292188
H        2.05969060      -9.64395308       6.08754206       0.18012127      -0.18691293      -0.07017045      -0.58564994      -0.66484631      -0.83148901
F        4.52857134     -10.22798032       6.58420889      -0.10376366       1.29667557       0.62733106       0.41646681      -2.07176428      -0.19847295
Cl       4.49966029      -7.30245005       7.74919273       0.52479502      -3.24540173       1.08899269      -0.19571699       0.04982099       0.01143080
H        4.08792939      -8.41338983       5.59928748      -0.09562995      -0.05500760      -0.23712717       0.05605110      -0.08934923       0.37608615
H        4.47965594      -8.53697752       7.41729094       0.26273263      -0.26782218       0.21859178      -0.04669622       0.32814363      -0.19364746
H        1.92496289      -7.98061615       6.71418413       0.16913885      -0.04629757       0.01033368       0.01412877      -0.33094476       0.27750736
H        2.25292730      -9.41632946       7.80975580       0.02693312       0.20308868       0.18592344      -0.35000371       0.27227183       0.13345222
9
Properties=species:S:1:pos:R:3:momenta:R:3:forces:R:3 R1=H R2=H R3=CH3 R4=CH3 leaving_group=Cl nucleophile=Cl rxn=sn2 config=rcc label=H_H_CH3_CH3_Cl_Cl_sn2_rcc conformation=0 reactant_id=H_H_CH3_CH3_Cl_none_-_r product_id=H_H_CH3_CH3_none_Cl_sn2_pc mp2_author_energy=-29302.391748605172 mp2_my_energy=0 hash=59123 address=T id=71 energy=-17370.909622457533 pbc="F F F"
C        4.21859165      -9.16778419       7.14172393      -0.19103266      -0.09419796      -0.81453002      -1.43773902       1.99013616       1.00268570
C        2.67924161      -9.06636602       7.06444340      -0.16541042       0.48036954      -0.48229661      -0.19599759      -0.73014747       0.46978219
H        2.34623104      -9.96400562       6.51036564      -0.15079725      -0.08229644       0.19528857       0.05008572       0.63407642      -0.35436479
F        4.75851845     -10.48829215       6.94297794       0.88486567      -0.31539278       0.63099501       0.02967335      -2.11120385      -0.94616449
Cl       4.85823060      -8.63440767       8.61299105       0.36112431      -2.07696163       1.33096126       0.02253446       1.24325161       0.68959293
H        4.47100174      -8.63835740       6.25487238      -0.04178253       0.05341517       0.11629018       0.83385533       0.23211289      -0.48032697
H        4.71952505      -8.72151876       8.08665298       0.07207771       0.12015902       0.06270480      -0.13548935      -0.61169257      -0.35199805
H        2.40098614      -8.09213535       6.60846410       0.10745685       0.00136667       0.33008583       0.16300821      -0.71792772       0.03103804
H        2.11679245      -9.12350048       8.01758669      -0.01369847      -0.01943158       0.25046010       0.67006888       0.07139451      -0.06024455
9
Properties=species:S:1:pos:R:3:momenta:R:3:forces:R:3 R1=H R2=H R3=CH3 R4=CH3 leaving_group=Cl nucleophile=Cl rxn=sn2 config=rcc label=H_H_CH3_CH3_Cl_Cl_sn2_rcc conformation=0 reactant_id=H_H_CH3_CH3_Cl_none_-_r product_id=H_H_CH3_CH3_none_Cl_sn2_pc mp2_author_energy=-29302.391748605172 mp2_my_energy=0 hash=59123 address=T id=71 energy=-17371.111659547125 pbc="F F F"
C        4.57347178      -9.47660191       7.60066085      -0.15741288      -1.01759755       0.73447615      -0.75295050      -0.62881254      -0.28834619
C        3.10701296      -9.14229601       7.37472920      -0.18130944      -0.25724050      -0.54893686      -0.57319768      -0.02037954       1.14340542
H        3.03462260      -8.75638718       6.39576928       0.33860940       0.17311620      -0.20167126      -0.12978736       0.32000838      -1.29877398
F        4.76123007     -10.78820666       6.93681300      -0.57613921       0.79724325       0.16990569       0.43482054       0.38765840       0.01875426
Cl       5.02783270      -9.43362884       9.23198736       0.85040845      -0.84838278       0.78660705       0.46212265       0.00976809       0.84084592
H        5.10283187      -8.76427606       6.99195143       0.24187762       0.03540675      -0.01069580       0.69072986      -0.14502482       0.11816068
H        4.98932830      -9.51566254       8.69604102       0.02452099       0.01974183      -0.08164531      -1.00909524       0.34486179      -0.99421864
H        2.65670947      -8.38222685       8.02026351      -0.20969691      -0.07719847       0.19614408       0.63764387       0.06121174       0.36113774
H        2.44164976     -10.00948548       7.43514994       0.23760989      -0.09864845       0.02314513       0.23971385      -0.32929148       0.09903480
9
Properties=species:S:1:pos:R:3:momenta:R:3:forces:R:3 R1=H R2=H R3=CH3 R4=CH3 leaving_group=Cl nucleophile=Cl rxn=sn2 config=rcc label=H_H_CH3_CH3_Cl_Cl_sn2_rcc conformation=0 reactant_id=H_H_CH3_CH3_Cl_none_-_r product_id=H_H_CH3_CH3_none_Cl_sn2_pc mp2_author_energy=-29302.391748605172 mp2_my_energy=0 hash=59123 address=T id=71 energy=-17371.099801076474 pbc="F F F"
C        4.78847212      -9.73698516       7.90268365       0.08255113      -0.23959932       0.70887196      -1.47598947      -1.00498620       0.44906423
C        3.39142977      -9.09041966       7.74339872      -0.36106367       0.14535061      -0.23228763       1.44896049       0.00257229      -2.73394776
H        3.21849704      -8.86167970       6.65527804       0.02641353      -0.19003633       0.21367520      -0.05897277      -0.68114161       0.70740155
F        4.93270856     -10.90781186       6.97930765       0.45358719       0.29168657       0.35748976      -0.33294289       1.23220402       0.83636042
Cl       5.10171142     -10.13703181       9.63444353       0.19335889      -1.14162933       0.00021700      -0.20705950      -0.03562669      -0.26231196
H        5.49394008      -9.00235942       7.56790400      -0.07903303      -0.12264871      -0.11525313       0.53359290      -0.00059300      -0.03222328
H        4.95055910     -10.07541752       8.99053872       0.11107624      -0.10849105      -0.01597889       0.86125435       0.12272933      -0.43459745
H        3.47289587      -8.10572291       8.14243740       0.14212099       0.06277288      -0.14601515      -0.12826150       0.83829420       1.05703094
H        2.58405746      -9.64878945       8.16266981      -0.11134663       0.27727162       0.08857070      -0.64058162      -0.47345234       0.41322331
9
Properties=species:S:1:pos:R:3:momenta:R:3:forces:R:3 R1=H R2=H R3=CH3 R4=CH3 leaving_group=Cl nucleophile=Cl rxn=sn2 config=rcc label=H_H_CH3_CH3_Cl_Cl_sn2_rcc conformation=0 reactant_id=H_H_CH3_CH3_Cl_none_-_r product_id=H_H_CH3_CH3_none_Cl_sn2_pc mp2_author_energy=-29302.391748605172 mp2_my_energy=0 hash=59123 address=T id=71 energy=-17371.069783177973 pbc="F F F"
C        5.10045875     -10.06519690       8.41673864      -0.03539587      -0.45573797      -0.15837798       0.17671802      -0.17030943      -1.34307691
C        3.91597284      -9.14782354       8.20026694      -0.16566523      -0.03091631       0.53794374      -1.58291054       0.11061354       3.01150458
H        3.85811537      -8.73242022       7.20234782       0.11748410       0.44627680       0.08127200       0.08568766      -0.42352931      -0.53942023
F        5.04945607     -10.94826218       7.22060762       0.15444230      -0.42422939       0.03632326       0.68574171      -0.14369458       0.45872908
Cl       5.13611859     -10.95083112       9.93481774       0.67076353      -1.26784884       1.18526794       0.19566919       0.47813804      -0.01057543
H        5.99610396      -9.46986597       8.30555933       0.05725211       0.22898645       0.23357606       0.08724493      -0.24485050      -0.13315591
H        5.19165316     -10.67896433       9.40729575      -0.17860686      -0.07841123      -0.15949541      -0.73616311      -0.10168426      -0.37607799
H        4.04143027      -8.24793920       8.87304135       0.11600493      -0.29209861      -0.05969570      -0.38373006      -0.86010859      -0.27190653
H        2.94254714      -9.73410978       8.50509400      -0.02145567       0.27253387      -0.35469488       1.47174219       1.35542508      -0.79602065
9
Properties=species:S:1:pos:R:3:momenta:R:3:forces:R:3 R1=H R2=H R3=CH3 R4=CH3 leaving_group=Cl nucleophile=Cl rxn=sn2 config=rcc label=H_H_CH3_CH3_Cl_Cl_sn2_rcc conformation=0 reactant_id=H_H_CH3_CH3_Cl_none_-_r product_id=H_H_CH3_CH3_none_Cl_sn2_pc mp2_author_energy=-29302.391748605172 mp2_my_energy=0 hash=59123 address=T id=71 energy=-17370.96665364128 pbc="F F F"
C        5.39005568     -10.58922285       8.96233299       0.35881632      -0.14833322       0.77818114       2.18321002      -0.43561563       1.62599404
C        4.60016498      -9.31122874       9.12274052       0.55426632      -0.77446133       0.08791698       2.00362463      -0.13236480      -0.17019680
H        5.15151539      -8.60451293       8.45791347      -0.19542577       0.03578140      -0.15022030      -0.46511936       0.13466822       0.92064349
F        5.28132493     -11.08967189       7.59494246      -0.06462299       0.19071871       1.12832958      -0.27536576      -0.03214203      -0.93785717
Cl       5.14582872     -11.81106304      10.15513546      -0.21255268      -1.05661474      -0.39656692      -0.67614883      -0.39930999       1.40116351
H        6.45675463     -10.39764230       9.10404116      -0.05774557      -0.09823090       0.03187434      -0.54894277       0.51045877      -0.59143492
H        5.24575837     -11.47746463       9.77733344       0.14477090       0.04195167      -0.29450062      -0.35582694       0.21971637      -1.28445295
H        4.47607665      -9.05469061      10.18723610       0.07906085       0.28914749       0.18390623       0.23676711       0.30963988      -0.28281789
H        3.66516222      -9.41403473       8.67025230       0.09483035      -0.05132641      -0.05200870      -2.10219809      -0.17505078      -0.68104131
9
Properties=species:S:1:pos:R:3:momenta:R:3:forces:R:3 R1=H R2=H R3=CH3 R4=CH3 leaving_group=Cl nucleophile=Cl rxn=sn2 config=rcc label=H_H_CH3_CH3_Cl_Cl_sn2_rcc conformation=0 reactant_id=H_H_CH3_CH3_Cl_none_-_r product_id=H_H_CH3_CH3_none_Cl_sn2_pc mp2_author_energy=-29302.391748605172 mp2_my_energy=0 hash=59123 address=T id=71 energy=-17371.096513831402 pbc="F F F"
C        5.68270065     -10.96016005       9.34056298      -1.05743590      -0.21349672       0.92850961      -2.00993215      -0.12011986      -0.62596628
C        5.13437906      -9.55030364       9.70700555       1.00285058       0.43218858       0.22209395      -1.36767466      -1.73516480       0.09897084
H        5.53851251      -8.87074092       8.97015485       0.24183935      -0.08175216       0.08938666       0.04035019       0.30360687      -0.16942176
F        5.45591826     -11.09721839       7.86495828       0.12691549      -0.39520802       0.09175412       0.17007780      -0.07665773       1.16806341
Cl       5.08908999     -12.39340066      10.31071056       0.27153093      -0.87392420      -0.22841927       0.09053752       1.45639070      -0.61687779
H        6.73329840     -10.86838927       9.42726544       0.26355428       0.14701220      -0.09957083       1.00968751      -0.42791396       0.17829644
H        5.25234697     -11.88569773       9.90615979       0.10028861       0.10323867       0.14480539       0.65027813       0.73886508      -0.25417853
H        5.40054363      -9.27357808      10.70697948      -0.23721935      -0.30851864       0.00026410       0.70656459       0.14771019       0.73948332
H        4.01498819      -9.49002542       9.73831680      -0.07449960      -0.23848134       0.04872568       0.71011107      -0.28671649      -0.51836966
9
Properties=species:S:1:pos:R:3:momenta:R:3:forces:R:3 R1=H R2=H R3=CH3 R4=CH3 leaving_group=Cl nucleophile=Cl rxn=sn2 config=rcc label=H_H_CH3_CH3_Cl_Cl_sn2_rcc conformation=0 reactant_id=H_H_CH3_CH3_Cl_none_-_r product_id=H_H_CH3_CH3_none_Cl_sn2_pc mp2_author_energy=-29302.391748605172 mp2_my_energy=0 hash=59123 address=T id=71 energy=-17371.054908530597 pbc="F F F"
C        6.05200189     -11.53607190       9.80457274       0.46347735       0.08510840       0.77429986      -1.05517603       1.63667049      -0.88315317
C        5.78774725     -10.23079089      10.62147817       0.19842433       0.70635756      -0.00240348      -0.20839244      -0.93358468       1.03308997
H        6.22328031      -9.36201396      10.15943048       0.19155842      -0.02409616       0.00922789       0.14907180       0.34583027      -0.78299425
F        5.66559701     -11.19961131       8.39378317       0.27163222       0.21928317      -0.27407260       0.84817068      -0.28499223       1.08968965
Cl       5.04739841     -12.92952989      10.38992332      -0.17625704      -1.65406822       0.34146192       0.50991492       0.22575383       0.21502190
H        7.12054393     -11.78967586       9.80810004      -0.31163835      -0.14332918       0.01968654      -0.67313971       0.14292523      -0.13024649
H        5.41354124     -12.39281921      10.13325840      -0.20933187      -0.25038894      -0.18754637      -0.21628931      -0.50882487       0.04233209