9
Properties=species:S:1:pos:R:3:momenta:R:3:forces:R:3 R1=H R2=H R3=CH3 R4=CH3 leaving_group=Cl nucleophile=Cl rxn=sn2 config=rcc label=H_H_CH3_CH3_Cl_Cl_sn2_rcc conformation=0 reactant_id=H_H_CH3_CH3_Cl_none_-_r product_id=H_H_CH3_CH3_none_Cl_sn2_pc mp2_author_energy=-29302.391748605172 mp2_my_energy=0 hash=59123 address=T id=71 energy=-17370.412368016237 pbc="F F F"
C        0.12542541       0.11270554      -0.00029240       0.22940774      -0.80346351      -0.46891437      -0.09214561       1.11788396      -0.00082481
C        1.62503867       0.00847468       0.00156754       0.27094853      -0.18952839       0.31726218      -0.06338950      -0.85342640       0.00215309
H        1.99473018      -0.50605055       0.89354482       0.01263376      -0.04556430       0.02157338       0.00320508       0.00300841       0.00517082
F        0.89788639       2.64149152      -0.00442372       0.90499289      -0.45959933      -0.45420445      -0.23271315      -0.10403772      -0.00076135
Cl      -0.69504884      -1.53494042       0.00509220      -0.92606947       0.15964546       0.44770280       0.38207948      -0.16174994      -0.00050876
H       -0.22306082       0.64592326      -0.87549887      -0.07928039       0.03425698      -0.05823411      -0.00302890      -0.00293595      -0.00472561
H       -0.22431889       0.65275656       0.87018381       0.00105577      -0.24869294       0.20452716      -0.00396382      -0.00350204       0.00469305
H        1.88822962       1.08069343      -0.00059746      -0.16468975       0.26264812      -0.05326890       0.00778691       0.00253743      -0.00033365
H        1.99700981      -0.51031959      -0.88698835       0.31374559       0.09833770      -0.13707135       0.00216950       0.00222225      -0.00486279
9
Properties=species:S:1:pos:R:3:momenta:R:3:forces:R:3 R1=H R2=H R3=CH3 R4=CH3 leaving_group=Cl nucleophile=Cl rxn=sn2 config=rcc label=H_H_CH3_CH3_Cl_Cl_sn2_rcc conformation=0 reactant_id=H_H_CH3_CH3_Cl_none_-_r product_id=H_H_CH3_CH3_none_Cl_sn2_pc mp2_author_energy=-29302.391748605172 mp2_my_energy=0 hash=59123 address=T id=71 energy=-17370.08849277477 pbc="F F F"
C        0.59092629      -0.41297771      -0.11104463       0.62242869      -1.30309962      -0.07829669      -1.50231186      -0.67990093      -0.30143513
C        1.66107304      -1.46452387       0.18759215       0.63503873      -0.86725770      -0.35049133       0.76724335       1.93508556       0.81430596
H        1.47802612      -1.87049577       1.20658018       0.06422758       0.24934545       0.10261042       0.43676094       0.68795392      -0.30697134
F        2.14664584       1.55656715      -0.84670951       1.07989248      -0.94701388      -0.87941298       0.65763610       0.52925625      -0.16166574
Cl      -0.94883257      -1.42755153       0.22236614      -1.70855340       0.57552427       0.46737751      -0.22999046       0.34209196      -0.03039144
H        0.51225353      -0.00125057      -1.14983695       0.29243774       0.13695711       0.00964191       0.48177769      -0.80229551       1.14523355
H        0.59092004       0.47328600       0.55454895       0.13928278      -0.26931252       0.14945817       0.20285682      -0.89143604      -0.36513960
H        2.63363106      -0.90179738       0.08293671       0.04604900       0.09215272       0.13486244      -0.82215368      -1.02724410       0.19455214
H        1.58730852      -2.35625874      -0.40419774      -0.07445239       0.01050172       0.09234789       0.00818109      -0.09351111      -0.98848838
9
Properties=species:S:1:pos:R:3:momenta:R:3:forces:R:3 R1=H R2=H R3=CH3 R4=CH3 leaving_group=Cl nucleophile=Cl rxn=sn2 config=rcc label=H_H_CH3_CH3_Cl_Cl_sn2_rcc conformation=0 reactant_id=H_H_CH3_CH3_Cl_none_-_r product_id=H_H_CH3_CH3_none_Cl_sn2_pc mp2_author_energy=-29302.391748605172 mp2_my_energy=0 hash=59123 address=T id=71 energy=-17370.23609675059 pbc="F F F"
C        0.88014748      -1.20965196      -0.28611507       0.66751468      -0.16568973      -0.61654577       2.34714752       1.56369711      -1.36912536
C        1.45119126      -2.49080536       0.22310783      -0.94454195       1.07043962      -0.67329475      -0.22558493      -0.69345063      -1.26120874
H        1.64478281      -2.49653426       1.27145763       0.03581002       0.35139152      -0.24260542      -0.37627151      -0.08151430       1.02912532
F        3.20704480      -0.98901486      -1.50736316       0.41961048      -3.44230109       0.29638665       0.01518896      -0.05137835       0.03119840
Cl      -0.73025981      -1.04944230       0.38372996       1.13393471      -0.34068769       0.82036426      -1.62969936       0.26232088       0.74717008
H        0.86025530      -1.17586944      -1.37909362       0.04788748       0.06526521       0.09849199      -0.24434821      -0.44315582       0.26668334
H        1.53999584      -0.31853093      -0.11167940      -0.03034306      -0.27583961       0.02330501      -0.72056440      -1.01849290       0.42376576
H        2.41718516      -2.53368613      -0.26101296      -0.21270756      -0.14709321      -0.03216760       0.33180193       0.03461635      -0.48514614
H        0.80656579      -3.33493094      -0.12552143       0.24891409      -0.00900281      -0.11241319       0.50233000       0.42735765       0.61753734
9
Properties=species:S:1:pos:R:3:momenta:R:3:forces:R:3 R1=H R2=H R3=CH3 R4=CH3 leaving_group=Cl nucleophile=Cl rxn=sn2 config=rcc label=H_H_CH3_CH3_Cl_Cl_sn2_rcc conformation=0 reactant_id=H_H_CH3_CH3_Cl_none_-_r product_id=H_H_CH3_CH3_none_Cl_sn2_pc mp2_author_energy=-29302.391748605172 mp2_my_energy=0 hash=59123 address=T id=71 energy=-17370.15624756693 pbc="F F F"
C        1.37358884      -2.02342879      -0.53001969      -0.13934997      -0.72034669       0.10045298       1.92837166       0.36062840      -1.42714443
C        1.10896402      -3.28882187       0.13512814      -0.48278636      -0.55001650       0.34250985      -0.77608803      -1.81543092       1.06087092
H        1.22592637      -3.31274097       1.23764968      -0.00151332      -0.11664838       0.02833266       0.50177632       0.27432492      -0.54278179
F        3.02726560      -3.64034395      -1.59528903       0.03612883      -0.86962032      -0.64216324      -0.80365696       1.13833709       0.28957182
Cl       0.16790797      -0.71296939       0.29304380       1.50846292       0.78399724      -0.79396461       0.66024069      -0.60280671      -0.43492025
H        1.15990132      -2.01222012      -1.60549288       0.06924609      -0.09294027       0.18843950      -0.19678887      -0.07028698       0.55220426
H        2.40380029      -1.67421345      -0.41807428      -0.04050472      -0.26814959       0.26598992      -0.46097224       0.07163939       0.19891776
H        1.70782127      -4.04640424      -0.42773728      -0.04845815       0.09718328       0.19381526       0.34326525       0.73089031       0.51506339
H        0.08972285      -3.57185652      -0.00181359      -0.03325050      -0.10193284       0.03798841      -1.19614781      -0.08729549      -0.21178169
9
Properties=species:S:1:pos:R:3:momenta:R:3:forces:R:3 R1=H R2=H R3=CH3 R4=CH3 leaving_group=Cl nucleophile=Cl rxn=sn2 config=rcc label=H_H_CH3_CH3_Cl_Cl_sn2_rcc conformation=0 reactant_id=H_H_CH3_CH3_Cl_none_-_r product_id=H_H_CH3_CH3_none_Cl_sn2_pc mp2_author_energy=-29302.391748605172 mp2_my_energy=0 hash=59123 address=T id=71 energy=-17370.032686845545 pbc="F F F"
C        1.63339643      -2.91939170      -0.36391494       0.86340497      -0.26860900      -1.29319236       0.43717853      -0.36081847      -1.64849917
C        0.45604214      -3.57794605       0.29702439      -0.81303278       0.49858486      -0.17599291      -0.18010747       0.50426332       0.48999778
H        0.42672970      -3.34272361       1.36386160       0.14901125       0.04492494       0.06261805      -0.45132098       0.74694902      -0.10683108
F        2.26642146      -4.95961526      -1.45558083      -1.10466941      -1.67047499       0.83948919      -0.18763937       0.49763284       0.56387614
Cl       1.41464794      -0.91304504      -0.13720642       1.86206997      -1.13990861       0.01744159      -0.14402946      -0.80674093       0.45030395
H        1.63624435      -2.99812318      -1.43483215       0.16091334      -0.05819670       0.15347394      -0.13747028      -0.04702132      -0.06692953
H        2.64139485      -3.15102456      -0.05436449      -0.02007927      -0.04210330      -0.04932143      -0.17129712      -0.03930210       0.48845618
H        0.59759469      -4.65568030       0.36199239       0.02049842       0.00844876      -0.07307736       0.21035260      -0.13540331      -1.00600163
H       -0.47550584      -3.29345941      -0.26439826       0.15217028      -0.06328466       0.11082945       0.62433356      -0.35955904       0.83562736
9
Properties=species:S:1:pos:R:3:momenta:R:3:forces:R:3 R1=H R2=H R3=CH3 R4=CH3 leaving_group=Cl nucleophile=Cl rxn=sn2 config=rcc label=H_H_CH3_CH3_Cl_Cl_sn2_rcc conformation=0 reactant_id=H_H_CH3_CH3_Cl_none_-_r product_id=H_H_CH3_CH3_none_Cl_sn2_pc mp2_author_energy=-29302.391748605172 mp2_my_energy=0 hash=59123 address=T id=71 energy=-17370.07266458059 pbc="F F F"
C        1.76579709      -3.62484098      -0.66252849      -0.54986082      -0.18991800       0.25721056      -0.06250429       0.81403879       0.58495285
C        0.34836439      -3.33210684      -0.14512097      -0.63936435      -0.21455713      -0.18729321       0.30351683       1.11467320      -1.15538635
H        0.29898995      -3.29116545       0.96295638      -0.00632189       0.10745184      -0.02299191       0.15894636      -0.20270688      -0.68660038
F        1.21266975      -5.79341486      -0.63711180      -0.16602462       0.04193261       0.18706591      -0.27648224      -0.73889334      -0.21909647
Cl       2.68826695      -1.79055110      -0.49567949       2.26725405      -1.23038296      -0.79266283       0.01122140       0.22683426       0.02304382
H        1.94803818      -3.80489819      -1.70820359      -0.03608094      -0.17251736       0.24557784      -0.67591489       0.08114522      -0.09438246
H        2.39960086      -4.27612586      -0.10192421      -0.08157836       0.04212741      -0.02792668      -0.09994680       0.12488876       0.50435339
H       -0.18928894      -4.18548899      -0.56563845      -0.01061664       0.06767906       0.01202813      -0.13478831       0.07395863       0.46678820
H       -0.06283819      -2.34626157      -0.56555562       0.03333596      -0.16906442       0.06876317       0.77595194      -1.49393862       0.57632741
9
Properties=species:S:1:pos:R:3:momenta:R:3:forces:R:3 R1=H R2=H R3=CH3 R4=CH3 leaving_group=Cl nucleophile=Cl rxn=sn2 config=rcc label=H_H_CH3_CH3_Cl_Cl_sn2_rcc conformation=0 reactant_id=H_H_CH3_CH3_Cl_none_-_r product_id=H_H_CH3_CH3_none_Cl_sn2_pc mp2_author_energy=-29302.391748605172 mp2_my_energy=0 hash=59123 address=T id=71 energy=-17370.14617503564 pbc="F F F"
C        1.77057014      -4.34656431      -0.47958903      -0.69459737      -0.25225489      -0.26822708       0.97498386      -0.48360468      -1.46321292
C        0.79136747      -3.24550950      -0.59732265       0.28710710      -0.13283389      -0.37451789      -0.56568860       1.38796126       0.02550672
H        0.85094927      -2.63070456       0.32482388       0.10935713      -0.12015866       0.05400472      -0.05121274      -0.15668840      -0.50218513
F        0.36008586      -5.82385261      -0.06463513      -0.87753119      -0.28412730       0.54820481      -0.33712113      -0.09553649       0.01004835
Cl       3.54400686      -2.80767741      -0.88010655       1.80673811      -0.60641494      -0.40816740       0.40513646      -0.01669843       0.03942537
H        2.11258219      -4.88430013      -1.36690449      -0.00169722      -0.13270694       0.08292937      -0.39394270       0.36159459       0.39404116
H        2.26316070      -4.66073934       0.41014413       0.05480726       0.01438786       0.03291335      -0.11267902       0.34762870       0.44659715
H       -0.22555826      -3.63742523      -0.65493455       0.12894815       0.21625736       0.14623629       0.22054142      -0.26312694      -0.04489412
H        0.98189093      -2.55301923      -1.47758558      -0.09109483      -0.23150927      -0.04513291      -0.14001755      -1.08152961       1.09467343
9
Properties=species:S:1:pos:R:3:momenta:R:3:forces:R:3 R1=H R2=H R3=CH3 R4=CH3 leaving_group=Cl nucleophile=Cl rxn=sn2 config=rcc label=H_H_CH3_CH3_Cl_Cl_sn2_rcc conformation=0 reactant_id=H_H_CH3_CH3_Cl_none_-_r product_id=H_H_CH3_CH3_none_Cl_sn2_pc mp2_author_energy=-29302.391748605172 mp2_my_energy=0 hash=59123 address=T id=71 energy=-17370.423312867017 pbc="F F F"
C        1.81350975      -4.70851668      -0.42012094       0.53966113       0.00637826       0.08477551      -0.61019416      -0.68327820      -0.08256457
C        1.30959061      -3.46278487      -1.08624731       0.12557240      -0.30453780       0.47952642      -1.10521806       0.17081752       0.00569025
H        0.19774103      -3.42142297      -1.08049460       0.11825025       0.00508897      -0.05498718       0.68159177      -0.36895587       0.42548689
F        0.09885113      -5.30178130       0.28699946       0.47404745       0.91199542      -0.37544841      -0.21669989       0.07532994      -0.08051319
Cl       4.09455145      -4.22353362      -1.09235504      -0.18621774      -1.85790905      -0.25189995       0.75338649       0.11416755      -0.16104491
H        1.98034991      -5.65868976      -0.92628637      -0.08545283      -0.10927901      -0.00972017      -0.22257375       0.73422541      -0.04583838
H        2.17768580      -4.67011139       0.57814372      -0.12818628       0.12698497       0.07621100       0.25437681       0.14532282       0.29501468
H        1.58667337      -3.41067775      -2.13355008      -0.09510489      -0.14800521       0.02890538       0.43997314       0.00173683      -0.09909609
H        1.68483298      -2.57721401      -0.55634205      -0.04613864      -0.14820247      -0.20731985       0.02535765      -0.18936601      -0.25713468
9
Properties=species:S:1:pos:R:3:momenta:R:3:forces:R:3 R1=H R2=H R3=CH3 R4=CH3 leaving_group=Cl nucleophile=Cl rxn=sn2 config=rcc label=H_H_CH3_CH3_Cl_Cl_sn2_rcc conformation=0 reactant_id=H_H_CH3_CH3_Cl_none_-_r product_id=H_H_CH3_CH3_none_Cl_sn2_pc mp2_author_energy=-29302.391748605172 mp2_my_energy=0 hash=59123 address=T id=71 energy=-17370.873644985706 pbc="F F F"
C        1.95067441      -4.84111850      -0.31667127       1.00189617       0.15752321       0.02422425      -0.38505885      -0.32906771      -1.48484438
C        1.78580029      -3.98261041      -1.57813645      -0.21806152      -0.26900514      -0.06006098      -0.69424622      -0.84818879       0.55378066
H        2.62698098      -4.14941578      -2.27477067      -0.00928206      -0.11276719      -0.00900290      -0.44070687       0.27807572       0.50871480
F        0.36152842      -4.54815290       0.46473207       0.11810516       0.52613299      -0.16826713       0.16052486       0.06119690      -0.23109173
Cl       4.34565015      -5.73328811      -1.22381876       0.29204768      -2.39548495      -0.01709433       0.31203139      -0.11932340       0.01792199
H        1.87321576      -5.91609992      -0.48119577      -0.15484580      -0.05494279      -0.14297676      -0.03434261       0.49168425       0.31628176
H        2.56806333      -4.53928952       0.49365410      -0.06010500       0.17681135      -0.07180709       0.26351633       0.23557357       0.22448447
H        1.67646946      -2.91940879      -1.29192856       0.09851706      -0.11942735      -0.11699907       0.02148587      -0.47333277      -0.33771709
H        0.84139065      -4.36892365      -2.06046659      -0.17890352       0.20737215       0.27651797       0.79679610       0.70338224       0.43246952
9
Properties=species:S:1:pos:R:3:momenta:R:3:forces:R:3 R1=H R2=H R3=CH3 R4=CH3 leaving_group=Cl nucleophile=Cl rxn=sn2 config=rcc label=H_H_CH3_CH3_Cl_Cl_sn2_rcc conformation=0 reactant_id=H_H_CH3_CH3_Cl_none_-_r product_id=H_H_CH3_CH3_none_Cl_sn2_pc mp2_author_energy=-29302.391748605172 mp2_my_energy=0 hash=59123 address=T id=71 energy=-17371.332190451445 pbc="F F F"
C        2.40685275      -4.85280164      -0.49110507       0.12658842      -0.43983179      -0.49059162      -1.42202788       0.29382764       0.88817125
C        2.10422375      -4.47991665      -1.88975014      -0.28024924       0.41289985       0.02853311       0.50380050       0.34807017      -0.37125823
H        2.79004029      -5.09483990      -2.48619562      -0.11013450      -0.04449940       0.14682643      -0.52800475       0.18667519      -0.22939236
F        1.28453292      -3.93679531       0.38188461       0.77615676       1.11976225      -0.23209943       1.03601444      -0.55552812      -0.74057475
Cl       4.13375585      -7.12023826      -1.16853524       0.39812165      -2.85749984       0.29538859      -0.15149165       0.32285581       0.02088819
H        2.08404967      -5.85123764      -0.19356713       0.04155063      -0.11074931      -0.10554668       0.54878783       0.40009541       0.05999610
H        3.35405881      -4.45706507      -0.14494837      -0.08577245      -0.13906825      -0.24240627      -0.04846120      -0.41445709       0.42376058
H        2.30759146      -3.41528256      -2.05653840       0.01652499      -0.08136820       0.10747474       0.17235309      -0.12067818       0.05567633
H        1.05226787      -4.60893416      -2.12169805       0.09270405       0.07415001       0.17931196      -0.11097038      -0.46086082      -0.10726711
9
Properties=species:S:1:pos:R:3:momenta:R:3:forces:R:3 R1=H R2=H R3=CH3 R4=CH3 leaving_group=Cl nucleophile=Cl rxn=sn2 config=rcc label=H_H_CH3_CH3_Cl_Cl_sn2_rcc conformation=0 reactant_id=H_H_CH3_CH3_Cl_none_-_r product_id=H_H_CH3_CH3_none_Cl_sn2_pc mp2_author_energy=-29302.391748605172 mp2_my_energy=0 hash=59123 address=T id=71 energy=-17371.79333944029 pbc="F F F"
C        3.30671402      -5.35832475      -0.84434291       0.45325224      -0.54987155       0.13851464       1.31456915      -0.84645853      -0.81715005
C        2.67812699      -5.25079935      -2.17527214      -0.31105566       0.22799873      -0.20842863      -0.55258167       0.15022732      -0.76838119
H        2.58384540      -6.26300832      -2.54325468      -0.24943166       0.22808506      -0.06646594      -0.01910969      -0.28397589      -0.22030018
F        3.38672359      -3.92819211      -0.29213032       1.53329181       0.04322205      -1.19989241      -0.13279442       0.61537286       0.45547124
Cl       3.30214096      -8.44432994      -0.82608501      -0.82515624      -1.79951545       0.46222136       0.00598123       0.61300419      -0.04729697
H        2.71653273      -5.96696145      -0.20772806       0.11535512      -0.16437707       0.11385216      -0.13830744      -0.24448232       0.94369511
H        4.36728834      -5.66981258      -0.90894843       0.03287438      -0.18536522       0.35255752      -0.76800899      -0.06424868       0.28407474
H        3.25386175      -4.65508244      -2.87744348       0.24213440      -0.23510601       0.11284859       0.27359965       0.08863640      -0.04313994
H        1.67839358      -4.80903006      -2.12761004       0.12889718       0.06229385      -0.06475250       0.01665217      -0.02807534       0.21302724
9
Properties=species:S:1:pos:R:3:momenta:R:3:forces:R:3 R1=H R2=H R3=CH3 R4=CH3 leaving_group=Cl nucleophile=Cl rxn=sn2 config=rcc label=H_H_CH3_CH3_Cl_Cl_sn2_rcc conformation=0 reactant_id=H_H_CH3_CH3_Cl_none_-_r product_id=H_H_CH3_CH3_none_Cl_sn2_pc mp2_author_energy=-29302.391748605172 mp2_my_energy=0 hash=59123 address=T id=71 energy=-17371.686134241827 pbc="F F F"
C        4.28233323      -6.51203156      -1.21106848      -0.72539119      -1.18042371       0.39633666       0.75965513       1.22174008      -0.01840137
C        3.33503956      -6.00700924      -2.29717133       0.60269161      -0.30743126       0.18606120       0.81723704      -0.04558608       1.95364096
H        2.67707737      -6.77693711      -2.60421845      -0.09407295       0.17712137      -0.09719646      -0.69080883      -0.69131204      -0.41942646
F        5.41408885      -5.41372595      -1.33885787       1.81374993      -1.51807571      -1.13296312      -0.72693791      -1.03815097       0.32984315
Cl       2.45158169      -8.77469325      -0.37390108      -0.64181798      -0.12320480       0.28974475       0.26948508       0.33972703      -0.18011095
H        4.05740127      -6.50996223      -0.14284518       0.32797063       0.28152809       0.04610635      -0.53597970       0.34915943      -0.61356281
H        4.76453135      -7.43527132      -1.42433147      -0.00159658      -0.12795841       0.07115277       0.42143505      -0.60622165      -0.38417441
H        3.96060123      -5.59643675      -3.06200745      -0.05454639      -0.28332318      -0.22454584       0.31774660      -0.02751284      -0.78618230
H        2.79473784      -5.18994976      -1.86396356       0.16530688       0.13272315       0.01841046      -0.63183246       0.49815703       0.11837420
9
Properties=species:S:1:pos:R:3:momenta:R:3:forces:R:3 R1=H R2=H R3=CH3 R4=CH3 leaving_group=Cl nucleophile=Cl rxn=sn2 config=rcc label=H_H_CH3_CH3_Cl_Cl_sn2_rcc conformation=0 reactant_id=H_H_CH3_CH3_Cl_none_-_r product_id=H_H_CH3_CH3_none_Cl_sn2_pc mp2_author_energy=-29302.391748605172 mp2_my_energy=0 hash=59123 address=T id=71 energy=-17371.8358698416 pbc="F F F"
C        4.77518423      -7.83051287      -1.59098307       0.42853567       0.60130030       0.68962769      -0.13220658       0.50042997       0.42994103
C        4.18396231      -6.63713184      -2.29177833       0.51959701      -0.09862274      -0.50062198       0.11460114      -0.07368303      -0.61869212
H        3.14427466      -6.45287669      -2.09537967      -0.01501684      -0.06269549       0.18445288      -0.51016483      -0.26430762       0.63422028
F        6.26220149      -7.79282929      -2.03003456      -0.10473482      -2.11201991      -0.83758174       0.15249408       0.05639749       0.04916349
Cl       2.26785029      -8.44779750      -0.11371065      -0.09323482       0.06307845      -0.15527544       0.01557530       0.01150491      -0.05448055
H        4.79099809      -7.73090382      -0.49818635       0.06426917       0.05362084      -0.00916629       0.02686019      -0.32469107      -0.57327810
H        4.46016810      -8.79854196      -1.96040579       0.08371412       0.12271751       0.10246000      -0.24296299       0.00958022       0.27026515
H        4.21454325      -6.81025887      -3.37498299      -0.11691710      -0.24851934       0.01076447       0.44201458       0.22828451       0.08643810
H        4.73427856      -5.73420382      -2.00960409       0.07389149      -0.09829972       0.24568706       0.13378910      -0.14351538      -0.22357726
9
Properties=species:S:1:pos:R:3:momenta:R:3:forces:R:3 R1=H R2=H R3=CH3 R4=CH3 leaving_group=Cl nucleophile=Cl rxn=sn2 config=rcc label=H_H_CH3_CH3_Cl_Cl_sn2_rcc conformation=0 reactant_id=H_H_CH3_CH3_Cl_none_-_r product_id=H_H_CH3_CH3_none_Cl_sn2_pc mp2_author_energy=-29302.391748605172 mp2_my_energy=0 hash=59123 address=T id=71 energy=-17371.69994251936 pbc="F F F"
C        4.91189679      -9.00141787      -1.78555627       0.00147044      -0.03467953      -0.07439814       0.94691931      -2.15569449      -2.00040356
C        5.40901104      -7.66499426      -2.21491058       1.09381531      -1.60135591       0.37062989       0.83654392      -0.75511114       0.31202762
H        4.76674962      -7.01232106      -1.63899387       0.20856778      -0.00060708       0.14212480       0.14275053       0.72484979      -0.18053580
F        5.97439666     -10.01842453      -2.42120730      -0.43142103      -2.18115410      -0.80666928      -1.92691084       1.67696371       1.24497370
Cl       2.62411476      -8.01535907      -0.11933384       0.27681157       0.74813690      -0.22221657       0.09075825       0.03770957      -0.07594570
H        4.91119992      -9.15302723      -0.72505975       0.08837644       0.02777793       0.12258952       0.23047469      -0.21385104       0.28745127
H        3.94217817      -9.30204526      -2.21188397      -0.03746165      -0.10508054       0.28299667       0.60420920       0.06454070       0.20860099
H        5.33345757      -7.54091031      -3.31298257      -0.06798440       0.03032066      -0.01237633       0.04101124       0.10416214       0.64542790
H        6.48492928      -7.67017389      -1.87958306       0.27682949       0.13220350      -0.25493730      -0.96575629       0.51643075      -0.44159643
9
Properties=species:S:1:pos:R:3:momenta:R:3:forces:R:3 R1=H R2=H R3=CH3 R4=CH3 leaving_group=Cl nucleophile=Cl rxn=sn2 config=rcc label=H_H_CH3_CH3_Cl_Cl_sn2_rcc conformation=0 reactant_id=H_H_CH3_CH3_Cl_none_-_r product_id=H_H_CH3_CH3_none_Cl_sn2_pc mp2_author_energy=-29302.391748605172 mp2_my_energy=0 hash=59123 address=T id=71 energy=-17371.726411664564 pbc="F F F"
C        4.96938105     -10.12440900      -1.77720178      -0.02017390      -1.16548085       0.87809783      -0.82213416      -0.29830554      -0.02517724
C        6.35963235      -9.60787535      -1.86222433       0.76592689      -0.43310788      -0.36965097       0.65934610       0.82687482       0.32115204
H        6.35316005      -8.60834594      -1.41902970       0.00658334      -0.01540594       0.14653867      -0.11597420       0.12377290      -0.10579744
F        5.01022074     -11.49282304      -2.52793007      -0.67303072      -0.41715291       0.00945940      -0.21058693       0.62662095       0.35235167
Cl       3.50705033      -7.68288125      -0.47515294       1.40808389       0.27380044      -0.75738513       0.56592795      -0.65995744      -0.34616563
H        4.58249747     -10.34910450      -0.79184746      -0.24488827      -0.16846559      -0.10470607       0.26855185      -0.15198766       0.19389771
H        4.22093251      -9.50324409      -2.25648378       0.01176071       0.04924013      -0.16550599       0.22490157      -0.15895896      -0.35107571
H        6.65371619      -9.50163921      -2.92955024      -0.03500461      -0.01322982       0.02145674       0.02863761      -0.28752748       0.70397597
H        7.10400279     -10.17337938      -1.25371002      -0.15376445      -0.36703839      -0.00030235      -0.59866979      -0.02053161      -0.74316138
9
Properties=species:S:1:pos:R:3:momenta:R:3:forces:R:3 R1=H R2=H R3=CH3 R4=CH3 leaving_group=Cl nucleophile=Cl rxn=sn2 config=rcc label=H_H_CH3_CH3_Cl_Cl_sn2_rcc conformation=0 reactant_id=H_H_CH3_CH3_Cl_none_-_r product_id=H_H_CH3_CH3_none_Cl_sn2_pc mp2_author_energy=-29302.391748605172 mp2_my_energy=0 hash=59123 address=T id=71 energy=-17371.789541427974 pbc="F F F"
C        4.73868023     -10.78632377      -1.71075733      -0.60659901       0.17872294       0.11479362      -0.63972317      -1.70406042       0.36292232
C        6.13997956     -11.10466919      -1.26349297      -0.40111063      -0.20525188       0.46120178       0.49671873       0.07894708      -0.89282877
H        6.68778550     -10.20432566      -0.96473755       0.20501293      -0.14103540       0.16328135      -0.28386427      -0.17205197       0.23992690
F        4.31985492     -12.15284924      -2.38765871      -0.23505053      -0.17486116       0.00886759       0.13952608       1.18851862       0.76964823
Cl       4.72070686      -7.83758912      -1.03695978       1.91028908      -1.52390342      -1.11506245       0.09483121      -0.38645988      -0.02912332
H        4.02072137     -10.65073901      -0.87751571       0.19581362      -0.04783068       0.08657167       0.37008689       0.05339451      -0.83987682
H        4.63347098     -10.09690802      -2.52382253      -0.11613220       0.02102492      -0.01288385       0.01017234       0.43324798       0.01089381
H        6.64704213     -11.52576040      -2.15678055      -0.12613897      -0.03061541       0.10196774      -0.12489522       0.13527107       0.45897058
H        6.14725609     -11.88687826      -0.49105840       0.07149683       0.02256631      -0.09683964      -0.06285260       0.37319302      -0.08053293
9
Properties=species:S:1:pos:R:3:momenta:R:3:forces:R:3 R1=H R2=H R3=CH3 R4=CH3 leaving_group=Cl nucleophile=Cl rxn=sn2 config=rcc label=H_H_CH3_CH3_Cl_Cl_sn2_rcc conformation=0 reactant_id=H_H_CH3_CH3_Cl_none_-_r product_id=H_H_CH3_CH3_none_Cl_sn2_pc mp2_author_energy=-29302.391748605172 mp2_my_energy=0 hash=59123 address=T id=71 energy=-17371.76439609342 pbc="F F F"
C        4.56897573     -11.26336547      -1.66531332      -0.29246331      -0.32100772       0.35976008       0.88472665       0.11500279      -0.12174259
C        5.45501602     -11.93711134      -0.60191888      -0.29052311       0.29563811       0.18204693      -1.94583932       0.54068234       0.05635231
H        6.19673163     -11.30836981      -0.13827502      -0.01103961       0.24883723      -0.25366984       0.30821147       0.28203035      -0.35346754
F        3.62194493     -12.42357006      -2.04239528       0.07480183       0.34825430      -0.09324294      -0.36450647      -0.64325333      -0.25949293
Cl       6.25094265      -8.83681160      -1.77556481       1.86861207      -3.23600407      -0.94546117       0.01788543       0.04489613       0.06927320
H        3.83592569     -10.50441232      -1.39078296      -0.07216842       0.03659495       0.03567415       0.63905664       0.00177766       0.40989119
H        5.06907068     -10.99361625      -2.59762750      -0.06770607       0.08820621       0.25484744      -0.13163012      -0.18246461       0.42729365