9
Properties=species:S:1:pos:R:3:momenta:R:3:forces:R:3 R1=H R2=H R3=CH3 R4=CH3 leaving_group=Cl nucleophile=Cl rxn=sn2 config=rcc label=H_H_CH3_CH3_Cl_Cl_sn2_rcc conformation=0 reactant_id=H_H_CH3_CH3_Cl_none_-_r product_id=H_H_CH3_CH3_none_Cl_sn2_pc mp2_author_energy=-29302.391748605172 mp2_my_energy=0 hash=59123 address=T id=71 energy=-17370.412368016237 pbc="F F F"
C        0.12542541       0.11270554      -0.00029240      -0.73674505      -0.10554567       0.10291421      -0.09214561       1.11788396      -0.00082481
C        1.62503867       0.00847468       0.00156754      -0.33532817       0.63583807       0.52560548      -0.06338950      -0.85342640       0.00215309
H        1.99473018      -0.50605055       0.89354482      -0.19275022      -0.39392395      -0.13352928       0.00320508       0.00300841       0.00517082
F        0.89788639       2.64149152      -0.00442372       0.63852421      -1.06623546       1.83734000      -0.23271315      -0.10403772      -0.00076135
Cl      -0.69504884      -1.53494042       0.00509220       0.11011790       0.03174050      -0.18279953       0.38207948      -0.16174994      -0.00050876
H       -0.22306082       0.64592326      -0.87549887      -0.01957414      -0.03456048      -0.04071416      -0.00302890      -0.00293595      -0.00472561
H       -0.22431889       0.65275656       0.87018381       0.20374053      -0.16415657       0.03721123      -0.00396382      -0.00350204       0.00469305
H        1.88822962       1.08069343      -0.00059746      -0.09562187       0.24275050      -0.22500539       0.00778691       0.00253743      -0.00033365
H        1.99700981      -0.51031959      -0.88698835      -0.05138913       0.08067509      -0.28727715       0.00216950       0.00222225      -0.00486279
9
Properties=species:S:1:pos:R:3:momenta:R:3:forces:R:3 R1=H R2=H R3=CH3 R4=CH3 leaving_group=Cl nucleophile=Cl rxn=sn2 config=rcc label=H_H_CH3_CH3_Cl_Cl_sn2_rcc conformation=0 reactant_id=H_H_CH3_CH3_Cl_none_-_r product_id=H_H_CH3_CH3_none_Cl_sn2_pc mp2_author_energy=-29302.391748605172 mp2_my_energy=0 hash=59123 address=T id=71 energy=-17370.256293223374 pbc="F F F"
C        0.04836640      -0.09671735       0.59301745      -0.10685601      -0.73849957       0.03636106      -0.36034748      -2.40265353      -1.71044904
C        1.30506490       0.08133280      -0.25479992       0.72419184       1.25373803      -0.19647943      -0.16469422      -0.83325248       1.84123140
H        1.72277495      -0.93584588      -0.47189143       0.30380379       0.21780866      -0.00650150       0.05669524       1.02397808       0.13589461
F        1.06542065       1.69640327       2.18099284      -0.02992804      -1.23281080       1.58258912       0.69390893       0.94111084       0.68345631
Cl      -0.95350630      -1.50349107      -0.17069142      -1.43347803       0.12392654       0.33480472       0.27568358       0.33352273      -0.01334668
H       -0.60087018       0.73139992       0.54566513       0.01088234      -0.07016390       0.07061056      -0.49736880       0.92152617       0.26544658
H        0.26821663      -0.39245456       1.60312049      -0.02101295      -0.14189686      -0.10131293       0.01392916       0.13327800       0.13192898
H        1.85735092       0.69907321       0.50827534      -0.00143173      -0.19412925       0.07625301       0.03547146      -0.32457221      -0.79627508
H        1.10401144       0.63329345      -1.15367997       0.03089404      -0.06228437      -0.01282576      -0.05327787       0.20706239      -0.53788709
9
Properties=species:S:1:pos:R:3:momenta:R:3:forces:R:3 R1=H R2=H R3=CH3 R4=CH3 leaving_group=Cl nucleophile=Cl rxn=sn2 config=rcc label=H_H_CH3_CH3_Cl_Cl_sn2_rcc conformation=0 reactant_id=H_H_CH3_CH3_Cl_none_-_r product_id=H_H_CH3_CH3_none_Cl_sn2_pc mp2_author_energy=-29302.391748605172 mp2_my_energy=0 hash=59123 address=T id=71 energy=-17370.22222451088 pbc="F F F"
C       -0.07192468      -0.71325688       1.25413161       0.15520748       0.61737673      -0.41051161       0.71050279       0.42737259      -0.81419279
C        0.46937780       0.66981412       0.92359664      -0.52467939      -0.22699872       1.51026960      -0.57366974       0.01576770      -0.35633638
H        1.13534547       0.62538418       0.05637351       0.16774324      -0.08685828       0.36378660      -0.47181201      -0.10094335      -0.36899937
F        1.30855116      -0.11280785       3.43274852       0.06895009      -1.27278543       0.30840128      -0.24626617      -0.33506705      -0.25044524
Cl      -1.05641623      -1.11988849      -0.34273798      -0.46036296       0.42431440      -0.16613048       0.42752625      -0.16020688       0.83357000
H       -0.76440783      -0.81385125       2.05439514       0.12096890      -0.22226993       0.05611198      -0.55389784       0.46326163       0.50829194
H        0.67552049      -1.47358675       1.41930307       0.12100719      -0.05292149       0.02520505       0.25752595      -0.05800319      -0.32612144
H        1.12871559       0.98823322       1.73183259      -0.23175218       0.10346023      -0.04334671      -0.59656840      -0.04682101       0.62250480
H       -0.41853912       1.32610800       0.72342015       0.06401738      -0.12111507       0.12595325       1.04665918      -0.20536045       0.15172848
9
Properties=species:S:1:pos:R:3:momenta:R:3:forces:R:3 R1=H R2=H R3=CH3 R4=CH3 leaving_group=Cl nucleophile=Cl rxn=sn2 config=rcc label=H_H_CH3_CH3_Cl_Cl_sn2_rcc conformation=0 reactant_id=H_H_CH3_CH3_Cl_none_-_r product_id=H_H_CH3_CH3_none_Cl_sn2_pc mp2_author_energy=-29302.391748605172 mp2_my_energy=0 hash=59123 address=T id=71 energy=-17370.22508644424 pbc="F F F"
C       -0.09147714      -0.81320480       1.71753822       0.67963406       0.05497811       0.33429331       1.76974326      -2.20664356       1.50187204
C       -0.71377252       0.06819774       2.74706064      -0.57966509      -0.56469239       0.28761984      -0.76421839       0.92027957      -0.04020781
H       -0.40863952       1.09838767       2.53922177      -0.11754264       0.07959256       0.04785298      -0.28064167       0.01730795       0.14653582
F        1.07878960      -2.09646259       3.53374801      -0.52920687      -1.41196551      -0.33260038      -0.66528619       0.92191681      -0.96129537
Cl      -0.83291487      -0.41759619       0.03708784      -0.00022891       0.80891981       1.13459106      -0.10961181       0.26418598       0.36461561
H       -0.17957795      -1.87766382       1.96362049       0.19798326      -0.11342210      -0.06012358      -0.19840493       0.43565115      -0.35843522
H        0.97867057      -0.61847209       1.63957509       0.20819280       0.24766817       0.02345720      -0.22960838      -0.08408286      -0.06214739
H       -0.45085095      -0.17860601       3.77200694      -0.15934928      -0.07888062       0.29854197       0.77746952      -0.45860007      -0.24903883
H       -1.79893785      -0.00073829       2.73042755      -0.20456022       0.16286235      -0.01217788      -0.29944140       0.18998504      -0.34189885
9
Properties=species:S:1:pos:R:3:momenta:R:3:forces:R:3 R1=H R2=H R3=CH3 R4=CH3 leaving_group=Cl nucleophile=Cl rxn=sn2 config=rcc label=H_H_CH3_CH3_Cl_Cl_sn2_rcc conformation=0 reactant_id=H_H_CH3_CH3_Cl_none_-_r product_id=H_H_CH3_CH3_none_Cl_sn2_pc mp2_author_energy=-29302.391748605172 mp2_my_energy=0 hash=59123 address=T id=71 energy=-17370.165876647 pbc="F F F"
C       -0.16190093      -1.20655317       2.24030444      -0.47986592      -0.29201622       0.25763277       0.65437909       1.07037410      -1.32080826
C       -1.44484475      -1.47443840       2.98152846      -0.56422081      -0.65520086      -0.41626368       0.14423647       1.14441899       0.22645578
H       -1.58596933      -0.73658841       3.77170412       0.01034367      -0.14053662       0.11987448       0.18222918       0.41242814      -0.06865207
F        0.60440825      -3.08132793       3.31781279      -0.11488467       0.10719718      -0.80532486       0.53625879      -0.77455766       0.54547697
Cl      -0.57999831       0.37560756       1.02173764       0.95758634      -0.43819455       2.57920285      -0.09252252      -0.60762192       0.59906444
H        0.25918909      -1.94001046       1.54292961      -0.16610750       0.17675003       0.03417852      -0.89144120       0.32474441       0.49789175
H        0.66797475      -0.75913651       2.79356711      -0.09927874       0.17656760      -0.07626011      -0.64300537      -0.33087100       0.10971449
H       -1.25789895      -2.38535474       3.52096939      -0.12409163       0.04891563      -0.08597352      -0.08313821      -0.78609713      -0.27635689
H       -2.35283938      -1.40672238       2.38366691       0.11037665       0.25744253      -0.00361814       0.19300377      -0.45281793      -0.31278622
9
Properties=species:S:1:pos:R:3:momenta:R:3:forces:R:3 R1=H R2=H R3=CH3 R4=CH3 leaving_group=Cl nucleophile=Cl rxn=sn2 config=rcc label=H_H_CH3_CH3_Cl_Cl_sn2_rcc conformation=0 reactant_id=H_H_CH3_CH3_Cl_none_-_r product_id=H_H_CH3_CH3_none_Cl_sn2_pc mp2_author_energy=-29302.391748605172 mp2_my_energy=0 hash=59123 address=T id=71 energy=-17370.14908756414 pbc="F F F"
C       -0.33712578      -1.64794675       2.77642747       0.57017445      -0.17974145       0.76779903      -0.02573278       0.79343031       0.61371032
C       -1.68630657      -1.92624786       2.15580045       0.01824070      -0.79357212      -0.53518423       0.41928432      -0.62836038      -0.59653453
H       -2.44547179      -1.81871975       2.93171880      -0.15452886       0.13169338       0.11314987      -0.15148101       0.43360921      -0.32313783
F       -0.03499086      -3.75365489       2.61900264      -0.92082085      -0.20059194      -0.84675372       0.36777351      -0.62599592       0.20948275
Cl      -0.44328602       0.48575424       2.86036545       0.10597282       0.63669386       2.34865921      -0.07457381      -0.29091784       0.11974090
H        0.59529890      -1.66421302       2.24360211      -0.16199870       0.00071743       0.20150611      -0.38843427      -0.21562363      -0.36027177
H       -0.22008652      -1.81356733       3.85241474      -0.01803472      -0.19587208       0.04565016      -0.22641557       0.01480543      -0.70685252
H       -1.65658386      -2.99722264       1.88305283       0.03648868      -0.04727451      -0.25454449       0.09864587       0.47002920       0.18502572
H       -1.87066957      -1.34803817       1.22785071       0.01931975      -0.16770878      -0.11731372      -0.01906625       0.04902362       0.85883695
9
Properties=species:S:1:pos:R:3:momenta:R:3:forces:R:3 R1=H R2=H R3=CH3 R4=CH3 leaving_group=Cl nucleophile=Cl rxn=sn2 config=rcc label=H_H_CH3_CH3_Cl_Cl_sn2_rcc conformation=0 reactant_id=H_H_CH3_CH3_Cl_none_-_r product_id=H_H_CH3_CH3_none_Cl_sn2_pc mp2_author_energy=-29302.391748605172 mp2_my_energy=0 hash=59123 address=T id=71 energy=-17370.156023782154 pbc="F F F"
C       -0.78916368      -2.04957216       2.99758115       0.39811839      -0.84248211       0.36195297      -1.00496037      -0.53274918       0.80499753
C       -1.15233310      -1.26757600       1.75594482       0.56714899      -0.55382541       0.00912688       0.94024543      -0.66345924      -1.18415540
H       -1.96523080      -0.52705689       1.83990831       0.08669440       0.20244977       0.01392197       0.14962172      -0.69038130       0.41744210
F       -0.54423917      -3.79694155       2.12276414      -0.93847564       1.11943091      -0.90920112      -0.30399267       0.70949357       0.10435990
Cl      -0.54567374      -0.15712044       4.33855212      -0.64353947      -0.51295365       2.12765370      -0.33910895       0.06255444       0.07036555
H        0.19542884      -2.18999735       3.35874641      -0.03127331      -0.08678275      -0.09260160       0.52371948      -0.04365532      -0.39548551
H       -1.57117182      -2.52356582       3.63745147       0.02657788       0.08367690      -0.04161371       0.75656457       0.93364599      -0.93404000
H       -1.36595155      -2.09409774       1.02363241      -0.11198476      -0.04849887       0.01274460      -0.06525070       0.96942385       0.50143497
H       -0.27323980      -0.68252470       1.35585349       0.16109038      -0.14511661       0.17433001      -0.65683851      -0.74487282       0.61508086
9
Properties=species:S:1:pos:R:3:momenta:R:3:forces:R:3 R1=H R2=H R3=CH3 R4=CH3 leaving_group=Cl nucleophile=Cl rxn=sn2 config=rcc label=H_H_CH3_CH3_Cl_Cl_sn2_rcc conformation=0 reactant_id=H_H_CH3_CH3_Cl_none_-_r product_id=H_H_CH3_CH3_none_Cl_sn2_pc mp2_author_energy=-29302.391748605172 mp2_my_energy=0 hash=59123 address=T id=71 energy=-17370.428474147287 pbc="F F F"
C       -1.12958163      -2.00452515       3.05066893      -0.70331598       0.49264502       0.19716491       0.03816555      -0.20429445      -2.38374461
C       -0.08027315      -1.14618480       2.40909950       0.50849760      -0.36515744       0.63794120       2.03866642      -0.96960126       0.88029211
H        0.91973706      -1.48931467       2.84044757       0.01919262       0.06999873       0.10371940      -1.18371787       0.60852641      -0.35042721
F       -1.18244021      -3.16985801       1.66500736      -0.34368476       1.22046290      -0.17995159      -0.38947831       0.93879900       0.99514458
Cl      -0.86264244      -1.10124937       5.41019749      -0.43816180      -2.25302543       2.04164052      -0.06881909       0.19498686      -0.41802677
H       -0.76451844      -2.77386326       3.63836486      -0.07830053      -0.23559574      -0.18194355      -0.11950636      -1.09346134       1.19124695
H       -2.14801303      -1.63600750       3.05924927       0.29309394       0.14382578      -0.30066246       0.11217989      -0.41972911       0.37465180
H       -0.17538105      -0.09284092       2.64101543       0.22325855      -0.20529629      -0.03004285      -0.11998555       0.23629871      -0.28522470
H       -0.02335252      -1.46454374       1.35923991      -0.17587518       0.00954341       0.08347968      -0.30750468       0.70847517      -0.00391215
9
Properties=species:S:1:pos:R:3:momenta:R:3:forces:R:3 R1=H R2=H R3=CH3 R4=CH3 leaving_group=Cl nucleophile=Cl rxn=sn2 config=rcc label=H_H_CH3_CH3_Cl_Cl_sn2_rcc conformation=0 reactant_id=H_H_CH3_CH3_Cl_none_-_r product_id=H_H_CH3_CH3_none_Cl_sn2_pc mp2_author_energy=-29302.391748605172 mp2_my_energy=0 hash=59123 address=T id=71 energy=-17371.187341429257 pbc="F F F"
C       -1.15526272      -1.89312673       3.37049474       0.37765811       1.49854217       0.00868714       1.27783986      -0.57106157      -0.31509491
C        0.36242112      -2.05381140       3.35121257      -0.37966284      -0.39325455       0.03774306      -0.92228288       1.57960180       0.14856763
H        0.72784675      -2.82456080       2.69179650      -0.01175955       0.00333948       0.09603740      -0.04256695      -0.19417440      -0.31407418
F       -1.52184699      -1.49555806       1.85805418       0.18436735       0.21639840       1.15258701       0.18848070       0.06881509       0.42623984
Cl      -1.22533631      -2.25389265       6.02689968      -0.32490818      -1.88830679      -0.18952645      -0.13724046      -0.16780090       0.14378925
H       -1.67687942      -2.81543095       3.48424780      -0.35273733       0.04019836       0.22211973      -0.55602678      -0.27386356       0.23986898
H       -1.48054281      -1.08783462       3.99063015      -0.04333237      -0.01221175      -0.14493965      -0.44680687       0.38544125      -0.32703300
H        0.65002951      -2.23875172       4.37397536       0.05020149       0.09571097       0.09846399       0.43448229      -0.22612885       0.15464360
H        0.74429149      -1.05530248       3.06376059       0.08068383      -0.23770886       0.14952068       0.20412109      -0.60082885      -0.15690721
9
Properties=species:S:1:pos:R:3:momenta:R:3:forces:R:3 R1=H R2=H R3=CH3 R4=CH3 leaving_group=Cl nucleophile=Cl rxn=sn2 config=rcc label=H_H_CH3_CH3_Cl_Cl_sn2_rcc conformation=0 reactant_id=H_H_CH3_CH3_Cl_none_-_r product_id=H_H_CH3_CH3_none_Cl_sn2_pc mp2_author_energy=-29302.391748605172 mp2_my_energy=0 hash=59123 address=T id=71 energy=-17371.490500736647 pbc="F F F"
C       -1.14854775      -1.63083130       3.86882247       0.83344925       0.22452725       0.18846885       0.38723216       1.44557276      -0.11757236
C       -0.08846586      -2.55230273       3.32391038      -0.04525383      -0.13465760      -0.10354529      -0.31076257       0.22824060       2.19868695
H       -0.48381288      -2.88029250       2.40315782      -0.11660845      -0.06970368       0.20374398      -0.10072948      -0.80034152      -1.13527937
F       -1.08430314      -0.49227049       2.90387349      -0.09427920       1.20682632       0.78793099      -0.09699617      -0.44535809       0.61490168
Cl      -1.52669053      -3.10644714       6.20028898      -1.04967022      -1.70621401       0.62144413       0.04452115       0.07661849      -0.42658150
H       -2.15020526      -1.93878178       3.78814982      -0.02620593      -0.07983520       0.26596116      -1.16649517      -0.94285447      -0.28852746
H       -1.09654712      -1.19583374       4.85341300       0.13412979       0.08655623      -0.26578625       0.91052691       0.12288138      -0.16884375
H        0.14775302      -3.34126405       4.04503997      -0.05903314      -0.04933282      -0.13453747      -0.25668057      -0.03613748      -0.46265173
H        0.78918407      -1.95867461       3.16089870       0.00316062      -0.15678561      -0.13018503       0.58938375       0.35137832      -0.21413246
9
Properties=species:S:1:pos:R:3:momenta:R:3:forces:R:3 R1=H R2=H R3=CH3 R4=CH3 leaving_group=Cl nucleophile=Cl rxn=sn2 config=rcc label=H_H_CH3_CH3_Cl_Cl_sn2_rcc conformation=0 reactant_id=H_H_CH3_CH3_Cl_none_-_r product_id=H_H_CH3_CH3_none_Cl_sn2_pc mp2_author_energy=-29302.391748605172 mp2_my_energy=0 hash=59123 address=T id=71 energy=-17371.55040330942 pbc="F F F"
C       -0.99638344      -1.49051453       4.64523725      -0.75788876      -0.55176645       1.33397096       0.46177847      -2.06896319       1.20478154
C       -0.95771772      -2.32859253       3.37772682      -0.72734185       0.15908600      -0.70851799      -2.47802544       0.21334635      -0.26773467
H       -1.84305951      -2.11348016       2.75267500      -0.09642440      -0.06794363      -0.05463251       0.18414543       0.13981923       0.16481810
F       -0.46485195      -0.28878105       4.32587887       0.53425854      -1.28465444       1.99153037       0.61342384       2.12686297      -0.86513788
Cl      -1.82084783      -3.79856303       6.05662199      -0.07873674       0.44931690      -0.83595848       0.03907229       0.31047120      -0.10162885
H       -1.97375937      -1.26191477       5.11413219       0.12371764      -0.00608217      -0.05587935       0.45935483      -0.79949088      -0.39155023
H       -0.27460267      -1.92364759       5.35253461       0.36867103      -0.16265383       0.00898698      -0.77315458       0.05781575       0.17872064
H       -1.02261851      -3.38834599       3.55984898       0.11123985       0.16954225       0.12798178       0.30071236      -0.21973346       0.31934771
H       -0.12576200      -2.05739455       2.77819013       0.00142624       0.45384095      -0.03031391       1.19269281       0.23987202      -0.24161637
9
Properties=species:S:1:pos:R:3:momenta:R:3:forces:R:3 R1=H R2=H R3=CH3 R4=CH3 leaving_group=Cl nucleophile=Cl rxn=sn2 config=rcc label=H_H_CH3_CH3_Cl_Cl_sn2_rcc conformation=0 reactant_id=H_H_CH3_CH3_Cl_none_-_r product_id=H_H_CH3_CH3_none_Cl_sn2_pc mp2_author_energy=-29302.391748605172 mp2_my_energy=0 hash=59123 address=T id=71 energy=-17371.448585125258 pbc="F F F"
C       -1.32712025      -1.57188335       5.69872953      -0.12890209      -1.03110958      -0.14827761       0.08965038       0.25888688      -0.58861937
C       -1.80604186      -1.16206816       4.26819056      -0.05965182      -0.52642754       1.52395817       0.82306234      -1.60063376       0.19948027
H       -1.59468389      -0.13204405       3.99062953       0.00011455       0.15080700       0.15100817       0.21400144       0.20388205       0.49928085
F        0.01997061      -1.38586254       5.80081601       0.22524360      -0.19974367       0.72968438       0.04581897      -0.17504045      -0.31898918
Cl      -1.90757108      -4.23322688       5.62249289      -0.50881143       0.67484824      -0.98967575      -0.05641724       0.42838802       0.04896208
H       -1.73766753      -0.87229627       6.40331637      -0.15206840      -0.29050480      -0.02668212      -0.63012177      -0.03322412       0.32241463
H       -1.57126076      -2.61723151       6.03302779       0.08519275       0.20726090       0.27214813       0.10989934       0.75015528      -0.89484896
H       -2.87054685      -1.32892206       4.16254055       0.20346195       0.11695304       0.01245093      -0.30063181      -0.11656673       0.15957533
H       -1.30163846      -1.80853018       3.50900730      -0.11430735       0.17180148       0.00920960      -0.29526164       0.28415283       0.57274434
9
Properties=species:S:1:pos:R:3:momenta:R:3:forces:R:3 R1=H R2=H R3=CH3 R4=CH3 leaving_group=Cl nucleophile=Cl rxn=sn2 config=rcc label=H_H_CH3_CH3_Cl_Cl_sn2_rcc conformation=0 reactant_id=H_H_CH3_CH3_Cl_none_-_r product_id=H_H_CH3_CH3_none_Cl_sn2_pc mp2_author_energy=-29302.391748605172 mp2_my_energy=0 hash=59123 address=T id=71 energy=-17371.459578294056 pbc="F F F"
C       -0.85961320      -2.23131847       6.35021584      -0.28259039      -0.41495619       0.80444021       0.72658248      -0.83487839      -1.64053742
C       -2.07950628      -1.27208245       6.28140063      -0.41164542       0.07167919       0.88227283       1.73494301       0.02489487       0.60816780
H       -2.00255822      -0.73065277       7.23395700      -0.11500556       0.13129493      -0.05585876      -0.55691662      -0.03290143      -0.01906954
F        0.24350747      -1.50795996       6.82060897       0.81951449      -0.46810712       0.73348987      -2.31198609      -1.28964738      -0.48912125
Cl      -2.41226676      -4.33773212       5.00811772      -0.50735479       0.14751956      -0.87708082       0.52945390       0.75893529       0.52324647
H       -1.02032983      -3.17567268       6.90199916       0.16983634      -0.05393420      -0.13876559       0.00363976       1.06442588       0.54845994
H       -0.57516105      -2.65202703       5.36583499      -0.07223820       0.28250511      -0.00007714      -0.25205600       0.76530629       0.41393612
H       -3.03616318      -1.78117870       6.16081683       0.28912697      -0.18169170       0.13520169       0.33728580      -0.00664626      -0.04936832
H       -1.89775019      -0.51852723       5.49625730      -0.27076862      -0.12966046      -0.18377311      -0.21094624      -0.44948887       0.10428620
9
Properties=species:S:1:pos:R:3:momenta:R:3:forces:R:3 R1=H R2=H R3=CH3 R4=CH3 leaving_group=Cl nucleophile=Cl rxn=sn2 config=rcc label=H_H_CH3_CH3_Cl_Cl_sn2_rcc conformation=0 reactant_id=H_H_CH3_CH3_Cl_none_-_r product_id=H_H_CH3_CH3_none_Cl_sn2_pc mp2_author_energy=-29302.391748605172 mp2_my_energy=0 hash=59123 address=T id=71 energy=-17371.517775889748 pbc="F F F"
C       -0.94758559      -2.77003017       6.78266168      -0.96049967       0.26595091      -0.35116409      -0.27614395       1.97447142       0.63356666
C       -2.17557913      -2.34972619       7.59710152       0.54556737      -0.67996280       0.00471858      -0.50532726      -0.56920612       0.12345039
H       -2.00510024      -2.51201998       8.65958216       0.09289121      -0.07719467      -0.10411209       0.32057644       0.02332483       0.12894376
F        0.07884799      -2.09341127       7.41027977      -0.18870152      -0.90630853       0.74568263       0.17372438      -0.55213071      -0.29823678
Cl      -2.49205513      -3.77109170       4.82665374       0.19055639       0.86009020       0.29919086      -0.57274998      -0.50975850      -0.64854675
H       -0.75104287      -3.85228023       6.82039510      -0.01790251       0.16014823       0.25620287      -0.08564686       0.56405691      -0.19137826
H       -1.04331705      -2.33564639       5.77011688      -0.14309372       0.06463624       0.01492940       0.59690095      -0.74095119       0.62773105
H       -3.07109380      -2.87997268       7.33749826       0.24090976      -0.13773505       0.06305624      -0.24827687      -0.74374563      -0.31430435
H       -2.48391553      -1.32180037       7.44816441      -0.07397034      -0.05698996       0.14323942       0.59694316       0.55393899      -0.06122573
9
Properties=species:S:1:pos:R:3:momenta:R:3:forces:R:3 R1=H R2=H R3=CH3 R4=CH3 leaving_group=Cl nucleophile=Cl rxn=sn2 config=rcc label=H_H_CH3_CH3_Cl_Cl_sn2_rcc conformation=0 reactant_id=H_H_CH3_CH3_Cl_none_-_r product_id=H_H_CH3_CH3_none_Cl_sn2_pc mp2_author_energy=-29302.391748605172 mp2_my_energy=0 hash=59123 address=T id=71 energy=-17371.442733833253 pbc="F F F"
C       -1.06087325      -3.12972372       7.33651664      -0.48044280       0.36965609       0.08864315       2.89449825       0.56382927      -0.17503300
C       -2.08842519      -3.84764858       8.10234099       0.42855767      -0.34854271       0.34316163       0.70767286      -0.35655786       0.15349355
H       -1.67538108      -4.81759788       8.37209773      -0.07563385      -0.13751385      -0.08321327      -0.40530850      -0.13968340       0.36528974
F       -0.09025510      -2.67139926       8.23530720      -0.02683009      -0.82208591       1.02220761      -1.55659007      -0.40469717      -1.18150506
Cl      -2.66729793      -3.10678496       4.85595228      -0.32597126       0.56749983      -0.09007577       0.55610292      -0.07647770       0.82680312
H       -0.47327413      -3.77044712       6.64102500      -0.17666634       0.13034406      -0.17112309      -0.85390176       0.29467162       0.18648787
H       -1.48255340      -2.31934877       6.79083252       0.13951880      -0.02585685      -0.03861939       0.07307134       0.67552971      -0.10541556
H       -2.86360891      -3.90293393       7.39288430       0.23161840      -0.00684346      -0.05120925      -1.29868668      -0.61006053      -0.50881450
H       -2.37930162      -3.24950350       8.95222720      -0.04564116      -0.26186998       0.11079615      -0.11685836       0.05344605       0.43869384
9
Properties=species:S:1:pos:R:3:momenta:R:3:forces:R:3 R1=H R2=H R3=CH3 R4=CH3 leaving_group=Cl nucleophile=Cl rxn=sn2 config=rcc label=H_H_CH3_CH3_Cl_Cl_sn2_rcc conformation=0 reactant_id=H_H_CH3_CH3_Cl_none_-_r product_id=H_H_CH3_CH3_none_Cl_sn2_pc mp2_author_energy=-29302.391748605172 mp2_my_energy=0 hash=59123 address=T id=71 energy=-17371.539366197376 pbc="F F F"
C       -1.65237134      -3.49065995       7.89248113       0.73084777      -0.91558703       0.02877117       2.21106271       0.99201026       0.79442550
C       -2.05434259      -4.88724832       7.67955870      -0.50597197      -0.56118147      -0.73130004      -0.08894707      -0.72661624      -0.56599254
H       -1.52125081      -5.38657366       6.86163843       0.30414969       0.04643580      -0.04577255       0.31349707      -0.03342205       0.36287836
F       -0.40716866      -3.48466166       8.52050238      -0.12365711      -0.89708901       2.00991921      -2.13184951       0.43456974      -0.85499111
Cl      -2.50613885      -2.49874401       5.50215900      -1.10250357       1.37853326       0.29812637       0.02451696      -0.15272901       0.28271670
H       -1.62872727      -2.90072709       6.94233887      -0.08711818       0.02262265      -0.15706567       0.14738619      -0.38370173       0.42510167
H       -2.42731476      -3.01846773       8.52081226       0.15766688      -0.22588740       0.01566641       0.69244442       0.00307636       0.10125083
H       -3.02779489      -4.71631351       7.28486021       0.26935726       0.22383693      -0.05394781      -1.06547588      -0.47525668      -0.05276722
H       -2.04650464      -5.49204133       8.60733429      -0.09685474       0.19516871       0.18428228      -0.10263488       0.34206934      -0.49262220
9
Properties=species:S:1:pos:R:3:momenta:R:3:forces:R:3 R1=H R2=H R3=CH3 R4=CH3 leaving_group=Cl nucleophile=Cl rxn=sn2 config=rcc label=H_H_CH3_CH3_Cl_Cl_sn2_rcc conformation=0 reactant_id=H_H_CH3_CH3_Cl_none_-_r product_id=H_H_CH3_CH3_none_Cl_sn2_pc mp2_author_energy=-29302.391748605172 mp2_my_energy=0 hash=59123 address=T id=71 energy=-17371.458043325158 pbc="F F F"
C       -1.57268684      -3.97628328       8.01104555      -0.50512154      -0.28254292       1.32101627       0.05991324      -0.71713893       1.57830001
C       -1.51858396      -4.97697157       6.91885403       0.36821297       0.02044852      -0.55913447       0.64224230      -1.64717646      -1.17978816
H       -0.54670724      -5.10581129       6.43717325       0.05358619      -0.01303424       0.10757002       0.19373248       0.36244825       0.14950643
F       -1.29440439      -4.66657514       9.17041854      -0.21454358      -1.15904780      -0.18097531       0.34383811       0.09797716       0.18371420
Cl      -2.60273206      -2.10149960       6.41655449      -0.07511072       0.76416559       1.00964292      -0.35857304       0.87255590      -0.76831724
H       -0.81313066      -3.17633977       7.91844206       0.03650588      -0.03263201      -0.03014465      -0.77758423      -0.30272931       0.02681691
H       -2.60400646      -3.64876270       8.10968159      -0.19590645       0.27108393       0.03255841       0.53973039       0.38449911       0.22231083