9
Properties=species:S:1:pos:R:3:momenta:R:3:forces:R:3 R1=H R2=H R3=CH3 R4=CH3 leaving_group=Cl nucleophile=Cl rxn=sn2 config=rcc label=H_H_CH3_CH3_Cl_Cl_sn2_rcc conformation=0 reactant_id=H_H_CH3_CH3_Cl_none_-_r product_id=H_H_CH3_CH3_none_Cl_sn2_pc mp2_author_energy=-29302.391748605172 mp2_my_energy=0 hash=59123 address=T id=71 energy=-17370.412368016237 pbc="F F F"
C        0.12542541       0.11270554      -0.00029240       2.11238994       0.31809720      -0.21781641      -0.09214561       1.11788396      -0.00082481
C        1.62503867       0.00847468       0.00156754      -0.05634953       0.83578650      -1.02242927      -0.06338950      -0.85342640       0.00215309
H        1.99473018      -0.50605055       0.89354482      -0.09959583       0.05344037       0.05520665       0.00320508       0.00300841       0.00517082
F        0.89788639       2.64149152      -0.00442372       0.15945679       0.36869915       0.02102243      -0.23271315      -0.10403772      -0.00076135
Cl      -0.69504884      -1.53494042       0.00509220       1.55052222      -0.05284473       0.44998692       0.38207948      -0.16174994      -0.00050876
H       -0.22306082       0.64592326      -0.87549887      -0.20346968      -0.02869178      -0.08952786      -0.00302890      -0.00293595      -0.00472561
H       -0.22431889       0.65275656       0.87018381      -0.03064986       0.21884890      -0.16283852      -0.00396382      -0.00350204       0.00469305
H        1.88822962       1.08069343      -0.00059746      -0.06397510      -0.16209383       0.09525909       0.00778691       0.00253743      -0.00033365
H        1.99700981      -0.51031959      -0.88698835      -0.18163701      -0.23436683      -0.04741769       0.00216950       0.00222225      -0.00486279
9
Properties=species:S:1:pos:R:3:momenta:R:3:forces:R:3 R1=H R2=H R3=CH3 R4=CH3 leaving_group=Cl nucleophile=Cl rxn=sn2 config=rcc label=H_H_CH3_CH3_Cl_Cl_sn2_rcc conformation=0 reactant_id=H_H_CH3_CH3_Cl_none_-_r product_id=H_H_CH3_CH3_none_Cl_sn2_pc mp2_author_energy=-29302.391748605172 mp2_my_energy=0 hash=59123 address=T id=71 energy=-17370.239462967198 pbc="F F F"
C        1.12578106       0.54088256      -0.29091277      -0.04564186      -0.64730551       0.54009204      -0.26414579       0.19573994       0.69546929
C        2.22259053       0.56396126      -1.29267957       0.58636843       0.70435959      -0.85603689       0.74460532      -0.86894698       0.16362007
H        3.13427372       0.09165454      -0.93523065      -0.11651409       0.06301589      -0.21762998       0.42154635       0.45873944       0.53311872
F        1.32224896       3.14583958      -0.42040348       0.85033131       0.15673645      -0.68635927       0.09441909       0.86519690      -0.14556627
Cl       0.83681371      -1.21787400       0.20828302       2.49690012       0.98939280       0.22365360      -0.11369345       0.50774670      -0.21681949
H        0.29352808       1.04120760      -0.79540528      -0.00656013      -0.17486744       0.00481121      -0.39353530      -0.66634610       0.46460745
H        1.36931818       1.22029644       0.55366424       0.02706788       0.01564279       0.02873398      -0.17477202      -0.86767614      -0.46284731
H        2.27432238       1.63484163      -1.46984802      -0.17223956       0.36329747      -0.05329594       0.35347637       0.28269531      -0.28705387
H        2.01950742      -0.05458488      -2.15062257       0.18567610       0.10227418      -0.08086080      -0.66790057       0.09285093      -0.74452859
9
Properties=species:S:1:pos:R:3:momenta:R:3:forces:R:3 R1=H R2=H R3=CH3 R4=CH3 leaving_group=Cl nucleophile=Cl rxn=sn2 config=rcc label=H_H_CH3_CH3_Cl_Cl_sn2_rcc conformation=0 reactant_id=H_H_CH3_CH3_Cl_none_-_r product_id=H_H_CH3_CH3_none_Cl_sn2_pc mp2_author_energy=-29302.391748605172 mp2_my_energy=0 hash=59123 address=T id=71 energy=-17370.131094015993 pbc="F F F"
C        2.05197090       0.97545126      -0.47571603       0.54586057      -0.21905513       0.16461845       0.53059105      -0.44512772       0.27522237
C        2.26750149       0.80045511      -1.98936009      -0.08115049       0.06717249      -0.22689651      -0.88557941       3.08441029       1.48863585
H        3.31843061       0.57114574      -2.19120093       0.20193946      -0.02404688      -0.20177777      -0.38105902      -0.42214301      -0.14482880
F        1.87964731       3.58860665      -0.93399802       0.25161356       0.30801911      -0.19913113      -0.02461607      -1.28402010      -0.00954731
Cl       2.50592953      -0.75634878       0.16618698       2.43516677       1.46427899      -0.33134162      -0.30276536       0.24911992       0.08948195
H        1.03559719       1.12978970      -0.12472432       0.08807360       0.18902889      -0.13503530       0.02503734       0.01239836      -0.60315847
H        2.66525323       1.64551671       0.11169520       0.16673248      -0.18445622      -0.07873556       0.24944516       0.16134205      -0.80825560
H        2.04116360       1.87323663      -2.29958749       0.10017167       0.00824945      -0.14824676       0.26196616      -1.06735760       0.08975778
H        1.48509387       0.12299268      -2.33281569      -0.12012509      -0.12636166       0.12223423       0.52698014      -0.28862220      -0.37730776
9
Properties=species:S:1:pos:R:3:momenta:R:3:forces:R:3 R1=H R2=H R3=CH3 R4=CH3 leaving_group=Cl nucleophile=Cl rxn=sn2 config=rcc label=H_H_CH3_CH3_Cl_Cl_sn2_rcc conformation=0 reactant_id=H_H_CH3_CH3_Cl_none_-_r product_id=H_H_CH3_CH3_none_Cl_sn2_pc mp2_author_energy=-29302.391748605172 mp2_my_energy=0 hash=59123 address=T id=71 energy=-17370.336584105826 pbc="F F F"
C        3.30920433       1.47889539      -0.82755560      -0.23127724       1.67027944      -1.00792879       0.40013109      -0.82404564       0.49123951
C        2.34460900       1.00641693      -1.86625277       0.65568123      -0.38873586       0.28614523       0.14770343      -1.99744368       0.73052533
H        2.84532597       0.50582117      -2.68773565      -0.17105831       0.06948812       0.22417414       0.31241195       0.29745839      -0.42562986
F        2.35322820       3.66179548      -1.51953396       0.46009241      -0.18383653      -0.12341258      -0.28984457       1.16636235      -0.20415606
Cl       4.13778637      -0.07950993      -0.11943659       2.49748043      -0.05200780      -0.10330083       0.08683232       0.44258323      -0.37211356
H        2.83504224       1.93580744       0.02739562       0.28697975       0.18881013      -0.10082699      -0.09616970       0.05662990      -0.06839770
H        3.99336946       2.19790675      -1.26805386      -0.03935831       0.11379377      -0.09267062       0.31767452      -0.30683434       0.31303629
H        1.85350629       1.91721678      -2.10144840      -0.06700470      -0.13204439       0.03133004      -0.63748414       0.91440599      -0.64652274
H        1.68560578       0.22713873      -1.46760183       0.02351943       0.12549714      -0.09788916      -0.24125490       0.25088381       0.18201878
9
Properties=species:S:1:pos:R:3:momenta:R:3:forces:R:3 R1=H R2=H R3=CH3 R4=CH3 leaving_group=Cl nucleophile=Cl rxn=sn2 config=rcc label=H_H_CH3_CH3_Cl_Cl_sn2_rcc conformation=0 reactant_id=H_H_CH3_CH3_Cl_none_-_r product_id=H_H_CH3_CH3_none_Cl_sn2_pc mp2_author_energy=-29302.391748605172 mp2_my_energy=0 hash=59123 address=T id=71 energy=-17370.244390158514 pbc="F F F"
C        4.24868328       1.90865195      -1.35622540       1.54522418      -0.74172353       0.63084779       1.79272763      -1.56539971       1.25598243
C        3.01150584       1.09858313      -1.16661095       0.46307494       1.34030533       0.21219188      -0.70650081      -0.04970276       0.48468752
H        3.10069565       0.07600712      -1.51269835      -0.03199173      -0.14712623       0.02923332      -0.02183381      -0.06304350      -0.92843967
F        2.90898335       3.68452087      -2.06930664      -0.27387267      -0.24325076      -0.48684886      -0.98203462       1.06703592      -0.54798439
Cl       5.69251080       0.74141886      -0.63759670       1.06729481       1.66083864      -1.32068219      -0.50436519       0.32982192      -0.23017038
H        4.26625807       2.78503879      -0.75440943       0.19771084      -0.09485038      -0.01610168       0.17104881       0.35870764       0.29797866
H        4.61362545       2.13662262      -2.34130903       0.21509231      -0.19439708       0.02026738      -0.38599130      -0.23659513      -0.19873857
H        2.23351166       1.74721605      -1.61631066       0.10367969      -0.15221150       0.00608199       0.32002769      -0.54483344      -0.00777190
H        2.75989384       0.90844704      -0.10649083      -0.04614117      -0.08865100      -0.00893070       0.31692159       0.70400907      -0.12554370
9
Properties=species:S:1:pos:R:3:momenta:R:3:forces:R:3 R1=H R2=H R3=CH3 R4=CH3 leaving_group=Cl nucleophile=Cl rxn=sn2 config=rcc label=H_H_CH3_CH3_Cl_Cl_sn2_rcc conformation=0 reactant_id=H_H_CH3_CH3_Cl_none_-_r product_id=H_H_CH3_CH3_none_Cl_sn2_pc mp2_author_energy=-29302.391748605172 mp2_my_energy=0 hash=59123 address=T id=71 energy=-17370.109811750302 pbc="F F F"
C        5.08006980       2.21255122      -1.59315235       1.48018406      -0.12963704       0.01864335      -2.49089846       0.25294435      -0.29227471
C        4.08022949       1.66816012      -0.56929179      -0.09375870       0.21900360       0.35176927      -1.37118067      -0.39414061      -0.41446167
H        3.97329646       0.57194450      -0.66615579       0.14360740       0.10189620      -0.14283035       0.46908728       0.19694203       0.03615870
F        3.33151691       3.34123896      -2.49874019       0.42765319      -0.47817355      -0.02792916       0.88697753      -0.53429349       0.43755587
Cl       6.71674180       1.41177776      -1.14920233       0.38590987       1.07791546      -0.93526811       1.14857320      -0.88250800       0.49482088
H        5.34407713       3.23275544      -1.46144471      -0.05919060       0.01528658      -0.08594095      -0.40487764       0.68499242      -0.32556256
H        4.87285929       1.87192023      -2.59437628      -0.07568227      -0.02129515       0.03608556       0.03286612       0.38901908      -0.01494115
H        3.02926014       2.04400505      -0.82551965       0.06940663       0.00995824       0.04384053       1.84658810       0.15025344       0.33450627
H        4.38751963       1.86616412       0.46813108      -0.09080445       0.10894025       0.11113977      -0.11713546       0.13679076      -0.25580163
9
Properties=species:S:1:pos:R:3:momenta:R:3:forces:R:3 R1=H R2=H R3=CH3 R4=CH3 leaving_group=Cl nucleophile=Cl rxn=sn2 config=rcc label=H_H_CH3_CH3_Cl_Cl_sn2_rcc conformation=0 reactant_id=H_H_CH3_CH3_Cl_none_-_r product_id=H_H_CH3_CH3_none_Cl_sn2_pc mp2_author_energy=-29302.391748605172 mp2_my_energy=0 hash=59123 address=T id=71 energy=-17370.06845598944 pbc="F F F"
C        5.54010816       2.45878635      -1.87958222       0.64453546       0.02478430       0.77809694      -0.21103211      -0.37326045       0.91357088
C        4.96106813       2.38873289      -0.46090843      -0.10795675       0.49014668      -0.44856338      -0.66740910       1.28129363      -2.11398719
H        5.18425311       1.39587151      -0.16313380       0.16734499       0.18156207       0.01949895      -0.49979328      -0.87660244       0.86082271
F        3.64011560       2.94693143      -2.59625808       1.05582553      -0.50730106       0.03781164      -0.26403952       0.13371563      -0.19583471
Cl       7.61388523       1.89221800      -1.49524957       0.76692101       0.84654724      -0.92497063      -0.70602774       0.30561454       0.02531486
H        5.67764688       3.40575486      -2.33200775      -0.28190759      -0.03069646      -0.18108986       0.38048517       0.32831018      -0.22000257
H        5.33362566       1.61986570      -2.50943484      -0.01049456       0.17773433       0.10018259       0.12028166       0.01003757      -0.13498578
H        3.89033310       2.72834118      -0.63461189       0.04002657      -0.03911396       0.12630372       1.15769913      -1.16281528       0.32511964
H        5.41297017       3.10482156       0.19097946       0.18995652      -0.12533106      -0.21758319       0.68983580       0.35370661       0.53998215
9
Properties=species:S:1:pos:R:3:momenta:R:3:forces:R:3 R1=H R2=H R3=CH3 R4=CH3 leaving_group=Cl nucleophile=Cl rxn=sn2 config=rcc label=H_H_CH3_CH3_Cl_Cl_sn2_rcc conformation=0 reactant_id=H_H_CH3_CH3_Cl_none_-_r product_id=H_H_CH3_CH3_none_Cl_sn2_pc mp2_author_energy=-29302.391748605172 mp2_my_energy=0 hash=59123 address=T id=71 energy=-17370.195587240258 pbc="F F F"
C        6.09821990       2.60088512      -2.10426526       0.46836745      -0.66264865      -0.57487572       0.64623188      -0.87897842      -1.49821824
C        5.89883304       3.16978973      -0.80812077       0.18340899       0.53303882      -0.12581212      -1.93672216       1.49894127       2.25869455
H        6.27375378       2.61209196       0.02983960      -0.04958292       0.32092790      -0.19230498       0.50487577      -0.55615828       0.14602003
F        4.20798648       2.48876624      -2.42144742       1.00090965      -0.11480849       0.60368342      -0.26908558      -0.18020313      -0.32809781
Cl       8.47589774       2.49630017      -1.88132212       0.87557947       1.07917119      -0.41019116      -0.11994405       0.25264966      -0.07721973
H        6.17199586       3.23158634      -2.96750428       0.07938651      -0.10302348       0.09960009       0.33258043      -0.11509530      -0.11917441
H        6.28800522       1.55968707      -2.19552964      -0.15151480       0.20935259      -0.19394898      -0.27242663      -0.51664898      -0.40086942
H        4.77030342       3.19462619      -0.69375511       0.12336767       0.08288835       0.11403772       1.29062661       0.39958876      -0.00757598
H        6.34530604       4.16152133      -0.73926809      -0.02897863      -0.31140339      -0.04107791      -0.17613628       0.09590443       0.02644101
9
Properties=species:S:1:pos:R:3:momenta:R:3:forces:R:3 R1=H R2=H R3=CH3 R4=CH3 leaving_group=Cl nucleophile=Cl rxn=sn2 config=rcc label=H_H_CH3_CH3_Cl_Cl_sn2_rcc conformation=0 reactant_id=H_H_CH3_CH3_Cl_none_-_r product_id=H_H_CH3_CH3_none_Cl_sn2_pc mp2_author_energy=-29302.391748605172 mp2_my_energy=0 hash=59123 address=T id=71 energy=-17370.60616483004 pbc="F F F"
C        6.77810813       2.74639499      -2.12198755      -0.13079082      -0.49064703      -0.45269756       0.75075493      -0.87855968      -0.46030772
C        6.56089744       3.94733370      -1.30005224       0.73483973       0.82668296      -0.00973183      -0.48323055      -0.02219113      -0.90865020
H        7.19124874       3.86599963      -0.47006326      -0.02659400       0.01518208      -0.15110032       0.81491281       0.33338644       1.48381418
F        5.15632600       2.07781340      -2.12816006       1.01650821      -0.23525129       0.25726478      -0.75320212      -0.04450361      -0.15904448
Cl       9.26088277       3.09668880      -2.35221580       0.81998563       1.03477937      -0.41527167       0.07795324       0.20275622       0.12739659
H        6.97910894       2.90550175      -3.15401008       0.08965761      -0.08225991      -0.10254136      -0.27723341      -0.27136544      -0.61232053
H        7.20406597       1.85999082      -1.70415979      -0.13380479      -0.33691106       0.07950401       0.18138611      -0.05516961       0.11082931
H        5.51258097       3.94668400      -1.06117996      -0.01319021       0.28473181       0.07271377      -0.53642463       0.14283147       0.41873250
H        6.80887204       4.80512601      -1.89861555      -0.10523556      -0.08594390       0.07290767       0.22508361       0.59281534      -0.00044966
9
Properties=species:S:1:pos:R:3:momenta:R:3:forces:R:3 R1=H R2=H R3=CH3 R4=CH3 leaving_group=Cl nucleophile=Cl rxn=sn2 config=rcc label=H_H_CH3_CH3_Cl_Cl_sn2_rcc conformation=0 reactant_id=H_H_CH3_CH3_Cl_none_-_r product_id=H_H_CH3_CH3_none_Cl_sn2_pc mp2_author_energy=-29302.391748605172 mp2_my_energy=0 hash=59123 address=T id=71 energy=-17370.965174480065 pbc="F F F"
C        7.51810231       2.79229977      -2.14270599       0.12961434       0.31635969      -0.28154628       0.94267069       1.56297556       1.12905498
C        7.06571528       4.25332953      -2.06597577      -0.51500538      -0.21198386      -0.05379210       1.22291217      -0.52548726      -0.12507079
H        7.53250413       4.83630237      -1.28855074      -0.19979519      -0.03777475      -0.01301275       0.58479911      -0.13770809       0.44798288
F        6.19052271       1.99587820      -1.67911817       1.39553727       0.26345267       0.35280698      -0.66365637      -0.42642350      -0.15915956
Cl       9.92805500       3.69585754      -2.75957545       1.38173784       0.39966169      -0.67115983      -0.15347993      -0.10297285       0.02894729
H        7.82512058       2.42535279      -3.09848962       0.14258760       0.09183274       0.14514679      -0.44684650      -0.29315364      -0.32206011
H        8.20308277       2.48620034      -1.36589419      -0.28976783      -0.03890642      -0.04473806       0.00556726      -0.07574361      -0.11545458
H        6.03745194       4.40820985      -1.92705938       0.00579520       0.19942351       0.05346962      -1.73489302      -0.60067300       0.05719933
H        7.35250724       4.73207028      -2.96728963       0.08631347      -0.09895998      -0.10316336       0.24292659       0.59918640      -0.94143944
9
Properties=species:S:1:pos:R:3:momenta:R:3:forces:R:3 R1=H R2=H R3=CH3 R4=CH3 leaving_group=Cl nucleophile=Cl rxn=sn2 config=rcc label=H_H_CH3_CH3_Cl_Cl_sn2_rcc conformation=0 reactant_id=H_H_CH3_CH3_Cl_none_-_r product_id=H_H_CH3_CH3_none_Cl_sn2_pc mp2_author_energy=-29302.391748605172 mp2_my_energy=0 hash=59123 address=T id=71 energy=-17371.367498094794 pbc="F F F"
C        8.52096542       3.27521785      -2.06307074       0.15366126      -0.23560506      -0.09800841      -0.69956607      -0.04018130       0.90494121
C        7.46326703       4.01006935      -2.87194580       1.54168641       0.74348077      -0.13639704       2.26382018      -0.85451587      -1.09375829
H        7.21811218       3.34726605      -3.71772156       0.16637886      -0.44316982       0.10631838      -0.30027100       0.51057756       0.14553121
F        7.67419723       2.34300792      -1.19170057       0.64140802      -0.16436877       0.59435929       0.27259327       0.23662636      -0.33946129
Cl      10.63133711       4.27894952      -3.30060166       0.31644131       0.99502629      -0.88917202       0.18064005       0.38595725      -0.23662436
H        9.17241059       2.61172017      -2.56693363       0.17182546      -0.00848207      -0.06066089       0.16831497      -0.56913271      -0.32224792
H        9.04851317       3.86360224      -1.32863783      -0.12511549       0.25428685      -0.00752228       0.00356169       0.15631782       0.00957254
H        7.79175197       4.99159509      -3.21361333      -0.08585123       0.02406995      -0.12528235       0.08493219      -0.18983562      -0.10192542
H        6.69204544       4.06978990      -2.18159410      -0.07508559      -0.04727433      -0.16344364      -1.97402528       0.36418652       1.03397233
9
Properties=species:S:1:pos:R:3:momenta:R:3:forces:R:3 R1=H R2=H R3=CH3 R4=CH3 leaving_group=Cl nucleophile=Cl rxn=sn2 config=rcc label=H_H_CH3_CH3_Cl_Cl_sn2_rcc conformation=0 reactant_id=H_H_CH3_CH3_Cl_none_-_r product_id=H_H_CH3_CH3_none_Cl_sn2_pc mp2_author_energy=-29302.391748605172 mp2_my_energy=0 hash=59123 address=T id=71 energy=-17371.372336148965 pbc="F F F"
C        9.41650650       3.53637376      -2.13867244       0.79958810       0.53226110      -0.25432049       0.33365279       1.48784227       0.51010828
C        8.43415509       3.30591858      -3.24428037      -0.41627878      -1.09302823      -0.22246140       0.09003655       0.12802475       0.20402574
H        8.37582701       2.24154137      -3.28217571      -0.02201055       0.07162338       0.36079820      -0.60261849      -0.97593782      -0.08440349
F        8.72819162       2.87626564      -0.94655087       1.14579770       0.46191924      -0.58966817       0.55776721      -0.29224222      -0.42025293
Cl      11.17303667       4.96195266      -3.77439434       0.79352291       0.70444644       0.03783109      -0.58089231      -0.43090294       0.47235341
H       10.40990934       3.05450111      -2.29887683       0.10163880       0.03150237       0.08995525      -1.07498443       0.44222958       0.49953437
H        9.43666583       4.57827972      -1.75379988       0.06890188       0.13240180      -0.10141463       0.58874222      -0.70764953      -0.65095429
H        8.81603482       3.62519066      -4.18801620       0.12084716       0.01918467       0.05290110       0.22549390       0.54020190      -0.59420275
H        7.44347820       3.74829141      -3.04815850      -0.26109580       0.10291971      -0.04549936       0.46280257      -0.19156600       0.06379165
9
Properties=species:S:1:pos:R:3:momenta:R:3:forces:R:3 R1=H R2=H R3=CH3 R4=CH3 leaving_group=Cl nucleophile=Cl rxn=sn2 config=rcc label=H_H_CH3_CH3_Cl_Cl_sn2_rcc conformation=0 reactant_id=H_H_CH3_CH3_Cl_none_-_r product_id=H_H_CH3_CH3_none_Cl_sn2_pc mp2_author_energy=-29302.391748605172 mp2_my_energy=0 hash=59123 address=T id=71 energy=-17371.373292158638 pbc="F F F"
C       10.45470607       4.05498150      -2.28384033      -0.40509633       0.66557757       0.46996075       0.43922121      -0.18830540      -0.21038094
C       10.18329653       2.97106678      -3.33516398       1.35381297       0.15700003      -0.39632445      -0.20001919       0.31308977       0.20301463
H       10.55371480       1.97159294      -3.09613330       0.03368914      -0.13129456      -0.00105616       0.31822108       0.38078644       0.34501338
F        9.92654234       3.47362801      -0.97995816       1.07116924      -0.07177700       0.83021500       0.19871998      -0.02495124      -0.33543147
Cl      11.53793764       5.46675125      -4.27329595       0.67628560       0.55414126      -1.53705744       0.37114169       0.78537535      -0.26178463
H       11.51891626       4.28187372      -2.11934557      -0.34929696      -0.03959382       0.14058498      -0.76865399      -0.54016272       0.14095041
H        9.90829056       4.99061423      -2.38657372       0.26505320       0.00185207      -0.04917174      -0.05712707      -0.47633924      -0.16655536
H       10.56946846       3.30437889      -4.28426978       0.04922532       0.02740793      -0.25885178       0.42226148      -0.37190894      -0.21639990
H        9.13892690       2.83792549      -3.55718723       0.39494600       0.11351676      -0.08892158      -0.72376520       0.12241598       0.50157387
9
Properties=species:S:1:pos:R:3:momenta:R:3:forces:R:3 R1=H R2=H R3=CH3 R4=CH3 leaving_group=Cl nucleophile=Cl rxn=sn2 config=rcc label=H_H_CH3_CH3_Cl_Cl_sn2_rcc conformation=0 reactant_id=H_H_CH3_CH3_Cl_none_-_r product_id=H_H_CH3_CH3_none_Cl_sn2_pc mp2_author_energy=-29302.391748605172 mp2_my_energy=0 hash=59123 address=T id=71 energy=-17371.295175864907 pbc="F F F"
C       11.34377711       4.33384886      -2.57885535       0.23122612      -0.11967223      -0.82892636       1.23084503      -0.77090289       2.40447837
C       11.96322360       3.05761772      -3.02552115       0.74288051       0.91024131       0.30742970      -1.27956880       0.30736574      -2.23305751
H       12.63982909       2.79934987      -2.24968594      -0.00802310       0.10206278      -0.11257288       0.84655957      -0.58177093       0.40334740
F       10.92940503       3.89633771      -1.16113324       1.03947452       0.35097009      -0.45124640      -0.29446990       0.50086727      -0.67400865
Cl      11.82980207       5.89483222      -4.75957229       0.49390337       0.02517784       0.01253063       0.00810439      -0.42559274       0.26699327
H       12.05531128       5.07192876      -2.34264812      -0.04946124      -0.11694509       0.02075336       0.52754448       1.15135691      -0.09182478
H       10.47577138       4.69083322      -3.01602080      -0.16933357      -0.08945577       0.16290379      -1.46184883       0.44219382      -0.80195695
H       12.39467073       3.13097976      -4.04658483       0.10368396      -0.03592100       0.09197650      -0.08795497      -0.12130828       0.83006249
H       11.09160058       2.39133807      -3.02906217      -0.06121834      -0.06644212       0.12751556       0.51078902      -0.50220889      -0.10403362
9
Properties=species:S:1:pos:R:3:momenta:R:3:forces:R:3 R1=H R2=H R3=CH3 R4=CH3 leaving_group=Cl nucleophile=Cl rxn=sn2 config=rcc label=H_H_CH3_CH3_Cl_Cl_sn2_rcc conformation=0 reactant_id=H_H_CH3_CH3_Cl_none_-_r product_id=H_H_CH3_CH3_none_Cl_sn2_pc mp2_author_energy=-29302.391748605172 mp2_my_energy=0 hash=59123 address=T id=71 energy=-17371.314066302824 pbc="F F F"
C       12.00110357       4.56740656      -2.70969604       0.27459165       0.02216790      -0.18580435       0.45852492       1.09328571      -1.83108980
C       13.33824314       3.90387325      -3.13028670       1.03578385      -0.75579166       0.45908799      -1.22265407       2.12342045       0.70094007
H       14.17434962       4.49828010      -2.71231003       0.13143429       0.22098957       0.19532531      -0.31286977      -0.81294810       0.30538232
F       11.78999176       4.17181081      -1.28812048       1.44004403       0.22032070      -0.24783003      -0.02836357      -0.70626331       1.41518633
Cl      12.11883243       5.94675520      -5.04152999       0.22872956       0.91950889      -1.08041501      -0.27547480       0.17645016      -0.20211044
H       11.92141998       5.64821420      -2.67933071      -0.17595645       0.28268301      -0.17627820       0.67077716      -0.24220289       0.16382816
H       11.10154455       4.24793528      -3.22028925      -0.25948658      -0.05247837      -0.17422889       0.20469293      -0.56397140      -0.19805836
H       13.44775491       4.01014554      -4.18279048      -0.07849618       0.17096746       0.20461383       0.09088019      -0.27405207      -0.88855713
H       13.26210859       2.87529989      -2.87145253       0.25400011       0.14963844       0.18383946       0.41448701      -0.79371855       0.53447883
9
Properties=species:S:1:pos:R:3:momenta:R:3:forces:R:3 R1=H R2=H R3=CH3 R4=CH3 leaving_group=Cl nucleophile=Cl rxn=sn2 config=rcc label=H_H_CH3_CH3_Cl_Cl_sn2_rcc conformation=0 reactant_id=H_H_CH3_CH3_Cl_none_-_r product_id=H_H_CH3_CH3_none_Cl_sn2_pc mp2_author_energy=-29302.391748605172 mp2_my_energy=0 hash=59123 address=T id=71 energy=-17371.26671598741 pbc="F F F"
C       13.08877610       5.03425462      -2.93463135       0.66171654      -0.41680566       0.66027227      -1.41636829      -1.47250761       1.20427402
C       14.58839665       5.07029747      -3.07980934      -0.15172898       1.39518423      -0.76149846       0.10175772      -0.86663801       0.99795257
H       15.02809468       5.91624561      -2.61190697      -0.09489550      -0.11547522       0.10935411       0.01712972       1.10306729       0.71882128
F       12.95722984       4.34969165      -1.54764912       0.70150797       0.41706717      -0.24106369       0.06566147       0.91921730      -0.95610636
Cl      12.45739900       5.97710442      -5.40451793       0.95751776       0.01988808      -0.54375228       0.30285807      -0.08951005       0.37564230
H       12.46840503       5.93426901      -2.81051212       0.22809719      -0.21650115       0.02089279       0.98568254      -0.30271293      -0.12090857
H       12.52249432       4.29641119      -3.51363706       0.20614294       0.06100716       0.21464634       0.72106536       0.48652485      -0.14527188
H       15.00372995       5.10892198      -4.04825948       0.19743319       0.05722037      -0.02456644      -0.15800204      -0.22184327      -1.44809379
H       15.01731547       4.20008711      -2.51666894      -0.03418173      -0.09756379      -0.20436824      -0.61978455       0.44440241      -0.62630957
9
Properties=species:S:1:pos:R:3:momenta:R:3:forces:R:3 R1=H R2=H R3=CH3 R4=CH3 leaving_group=Cl nucleophile=Cl rxn=sn2 config=rcc label=H_H_CH3_CH3_Cl_Cl_sn2_rcc conformation=0 reactant_id=H_H_CH3_CH3_Cl_none_-_r product_id=H_H_CH3_CH3_none_Cl_sn2_pc mp2_author_energy=-29302.391748605172 mp2_my_energy=0 hash=59123 address=T id=71 energy=-17371.154814402762 pbc="F F F"
C       13.92255704       5.35346300      -3.12675238      -0.33344390       0.52980127      -0.63906675       0.59063433      -0.30811285       0.75809808
C       15.02100109       6.34666897      -3.23102683       0.87020811       0.69644749       0.93578114      -2.62036015       1.26001889      -0.17077170
H       14.82441578       6.86625966      -2.27937087       0.19498707      -0.12675689       0.28306546       0.93779818       0.35040032      -0.47183731
F       14.30559252       4.60746608      -1.85982994       1.75673650       0.38233410      -0.68619669       0.35997316      -0.45560345       0.57462875
Cl      13.00741796       5.90227371      -5.61048595       0.61134138      -0.69683538      -1.10588136      -0.03931494       0.08849840       0.13174700
H       13.03914981       5.77077200      -2.75308167       0.06008447       0.11406075       0.32308223      -1.56148164       0.53709820      -0.45934285
H       13.84844848       4.55828419      -3.80092681       0.14205021       0.11292049      -0.03147522      -0.20195966      -0.65085188      -0.93579443