9
Properties=species:S:1:pos:R:3:momenta:R:3:forces:R:3 R1=H R2=H R3=CH3 R4=CH3 leaving_group=Cl nucleophile=Cl rxn=sn2 config=rcc label=H_H_CH3_CH3_Cl_Cl_sn2_rcc conformation=0 reactant_id=H_H_CH3_CH3_Cl_none_-_r product_id=H_H_CH3_CH3_none_Cl_sn2_pc mp2_author_energy=-29302.391748605172 mp2_my_energy=0 hash=59123 address=T id=71 energy=-17370.412368016237 pbc="F F F"
C        0.12542541       0.11270554      -0.00029240       0.19586453      -0.60764750      -0.97543884      -0.09214561       1.11788396      -0.00082481
C        1.62503867       0.00847468       0.00156754       0.30151940      -0.44097010      -0.15652181      -0.06338950      -0.85342640       0.00215309
H        1.99473018      -0.50605055       0.89354482      -0.24490672      -0.13610984       0.01749206       0.00320508       0.00300841       0.00517082
F        0.89788639       2.64149152      -0.00442372      -0.30183025      -0.54196691       0.05202388      -0.23271315      -0.10403772      -0.00076135
Cl      -0.69504884      -1.53494042       0.00509220       0.57753007      -0.68126355       0.66799066       0.38207948      -0.16174994      -0.00050876
H       -0.22306082       0.64592326      -0.87549887       0.38607216      -0.05784122      -0.05848179      -0.00302890      -0.00293595      -0.00472561
H       -0.22431889       0.65275656       0.87018381       0.09559926       0.07187425      -0.33230797      -0.00396382      -0.00350204       0.00469305
H        1.88822962       1.08069343      -0.00059746       0.08996879       0.25375430      -0.13947923       0.00778691       0.00253743      -0.00033365
H        1.99700981      -0.51031959      -0.88698835       0.29184946      -0.08421806      -0.03139294       0.00216950       0.00222225      -0.00486279
9
Properties=species:S:1:pos:R:3:momenta:R:3:forces:R:3 R1=H R2=H R3=CH3 R4=CH3 leaving_group=Cl nucleophile=Cl rxn=sn2 config=rcc label=H_H_CH3_CH3_Cl_Cl_sn2_rcc conformation=0 reactant_id=H_H_CH3_CH3_Cl_none_-_r product_id=H_H_CH3_CH3_none_Cl_sn2_pc mp2_author_energy=-29302.391748605172 mp2_my_energy=0 hash=59123 address=T id=71 energy=-17370.256160203433 pbc="F F F"
C        0.70344614      -0.75518967      -0.61226575      -0.40505415      -0.55077168       0.20990453      -0.63127639      -0.49368827       1.52531470
C        2.02874323      -0.55896242       0.07621523       0.67355685       0.27883938       0.05770841      -0.54696982      -0.29702781      -0.53541885
H        2.00579204      -0.54351455       1.16123858       0.23952303       0.25773552       0.01324946      -0.47545449      -0.09191892       0.15708918
F        1.12707915       1.82568045      -0.88807418       0.70188881      -1.21108919      -1.20258597      -0.05088831       0.42112314      -0.35424953
Cl      -0.02774216      -2.40600110      -0.11638770       1.07541754      -1.93548577      -0.90245900       0.37707607       0.00996772      -0.04983478
H        0.69385644      -0.79740318      -1.67945820      -0.06564055      -0.01223284      -0.08847528       0.46805054       0.27302452      -0.41173249
H        0.02805843      -0.00726331      -0.27256288      -0.10091127       0.05212549       0.21779391      -0.51133155       0.48032737      -0.02579992
H        2.23420154       0.44242228      -0.30043936      -0.17347206      -0.12728938       0.23589954       0.38151927       0.37914478      -0.00144077
H        2.70896969      -1.30861184      -0.24431031       0.08646553       0.00065640       0.06307603       0.98927469      -0.68095252      -0.30392755
9
Properties=species:S:1:pos:R:3:momenta:R:3:forces:R:3 R1=H R2=H R3=CH3 R4=CH3 leaving_group=Cl nucleophile=Cl rxn=sn2 config=rcc label=H_H_CH3_CH3_Cl_Cl_sn2_rcc conformation=0 reactant_id=H_H_CH3_CH3_Cl_none_-_r product_id=H_H_CH3_CH3_none_Cl_sn2_pc mp2_author_energy=-29302.391748605172 mp2_my_energy=0 hash=59123 address=T id=71 energy=-17370.183306603747 pbc="F F F"
C        1.13809132      -1.57659563      -0.72145158       0.70996441      -0.47107271       0.39974266       1.47432552       1.18128272      -1.55347034
C        2.31809195      -1.19792064       0.15956043      -0.03999471       0.08163744      -0.17724651      -0.67232613      -0.95863395       0.13435092
H        2.05891533      -1.34417886       1.19236488      -0.07523689      -0.09759512      -0.10974312       0.02606299      -0.38865506       0.68866492
F        1.50179124       0.64230396      -2.15145191       0.46243662      -1.32490836      -0.41130429      -0.14590677      -0.87630490       0.93441820
Cl       0.85228975      -3.37877513      -0.38266628       0.81642638      -1.34976731      -0.56586916      -0.19200227       0.24102342       0.03302040
H        1.48348964      -1.34902349      -1.75465875       0.09475080      -0.02657927       0.00781081      -0.91546256      -0.47019666       0.56041567
H        0.23092302      -1.01375461      -0.49083861       0.04205479      -0.14772825       0.00066195       0.34408099      -0.20800172      -0.18259672
H        2.46082956      -0.15972410       0.03262849      -0.03000987       0.14184832      -0.22747917       0.35572528       1.18548792      -0.68415516
H        3.20481844      -1.80334750      -0.08778806      -0.12003628       0.22064214      -0.19469199      -0.27449704       0.29399825       0.06935210
9
Properties=species:S:1:pos:R:3:momenta:R:3:forces:R:3 R1=H R2=H R3=CH3 R4=CH3 leaving_group=Cl nucleophile=Cl rxn=sn2 config=rcc label=H_H_CH3_CH3_Cl_Cl_sn2_rcc conformation=0 reactant_id=H_H_CH3_CH3_Cl_none_-_r product_id=H_H_CH3_CH3_none_Cl_sn2_pc mp2_author_energy=-29302.391748605172 mp2_my_energy=0 hash=59123 address=T id=71 energy=-17370.291912436383 pbc="F F F"
C        1.89738719      -2.75302923      -1.48869147       0.17271437      -1.10885713      -0.88533749      -0.26914661       0.04178633       0.20216514
C        2.34607521      -1.76545930      -0.48537645       0.28081492      -0.70824353       0.31298298       1.47466200       1.12174622       0.84935689
H        1.70383009      -1.70000833       0.40754996       0.05851301      -0.18063312      -0.12429504       0.03655722      -0.05634038      -0.32357958
F        2.01774886      -0.67660580      -2.87682295       0.02044637       0.24876190      -1.62590210      -0.04745855       0.09645404      -0.41218918
Cl       1.76609272      -4.35992596      -0.44078093       1.20366618      -0.99081032       0.54870486      -0.12999874      -0.18471022      -0.28751538
H        2.65871579      -2.94428677      -2.23558560       0.14027675       0.09215505       0.12889398      -0.37525342      -0.01392662      -0.14658980
H        0.91045545      -2.52685922      -1.87178821       0.18880026      -0.11955570      -0.05990181       0.14260803      -0.29242189      -0.28258923
H        2.43678284      -0.78603727      -1.03877333      -0.04364064      -0.14544069      -0.06840935      -0.35059899      -0.98456106       0.30581338
H        3.35905832      -2.07781081      -0.15236941      -0.04260160      -0.25052036       0.41363986      -0.48137094       0.27197357       0.09512776
9
Properties=species:S:1:pos:R:3:momenta:R:3:forces:R:3 R1=H R2=H R3=CH3 R4=CH3 leaving_group=Cl nucleophile=Cl rxn=sn2 config=rcc label=H_H_CH3_CH3_Cl_Cl_sn2_rcc conformation=0 reactant_id=H_H_CH3_CH3_Cl_none_-_r product_id=H_H_CH3_CH3_none_Cl_sn2_pc mp2_author_energy=-29302.391748605172 mp2_my_energy=0 hash=59123 address=T id=71 energy=-17370.035631654784 pbc="F F F"
C        2.61052878      -3.57526370      -1.74230755       0.14250367       0.08603053      -0.61481240       0.47443890       2.06897338      -1.08574890
C        2.36934467      -2.30041575      -0.93800517      -0.66560220      -0.22088791       0.18819914      -1.78823515      -1.09863027      -0.35776321
H        1.27926367      -2.23739536      -0.67275490       0.00331900       0.04084101      -0.03486741       0.85710928      -0.07860926      -0.03671638
F        2.42117126      -2.08827491      -3.62348394       0.34977239      -1.04530671      -0.66740477       0.22406469      -0.74837716       0.89679482
Cl       2.60028218      -5.18128991      -0.65484759       1.33060625      -1.33051172      -0.05561923      -0.18962383       0.08976997       0.69453731
H        3.61087961      -3.59225004      -2.13632452       0.12027619      -0.20095141       0.11329841       0.06315054       0.00011692      -0.32727644
H        1.88190333      -3.67898062      -2.49758255       0.09112202       0.03069743       0.05599429      -0.49541530      -0.37722072      -0.64349408
H        2.52660452      -1.56294376      -1.75114330       0.23714064      -0.07248207      -0.12119707       0.29556297      -0.13986652       0.55894283
H        2.94522446      -2.24714267      -0.03187520       0.17350909      -0.13674637      -0.08832196       0.55894789       0.28384365       0.30072405
9
Properties=species:S:1:pos:R:3:momenta:R:3:forces:R:3 R1=H R2=H R3=CH3 R4=CH3 leaving_group=Cl nucleophile=Cl rxn=sn2 config=rcc label=H_H_CH3_CH3_Cl_Cl_sn2_rcc conformation=0 reactant_id=H_H_CH3_CH3_Cl_none_-_r product_id=H_H_CH3_CH3_none_Cl_sn2_pc mp2_author_energy=-29302.391748605172 mp2_my_energy=0 hash=59123 address=T id=71 energy=-17369.936189473 pbc="F F F"
C        3.15082863      -4.52169391      -2.50947719      -0.92332325      -0.86965423      -0.75738960      -0.57268727       1.11916430      -1.09135936
C        2.29356911      -3.62412042      -1.67177764       0.76300526      -0.67011359      -1.13368757       0.24706481      -0.36446767       0.17747521
H        1.44065176      -4.16308612      -1.18716494       0.15866893      -0.27962962      -0.16553358       0.57811989       0.71302583      -0.78677235
F        3.03849335      -3.28640226      -4.41382469       0.87384761      -1.01076951      -0.47195653      -0.04416019      -1.16517066       2.11323971
Cl       3.53406631      -5.90878026      -0.63399589       2.28916553      -1.92784268       0.61106142       0.20975114      -0.22068431      -0.06142856
H        4.14127038      -4.17906442      -2.72022684      -0.12856051       0.15172018       0.10802544       0.16885194      -0.25245017      -0.12104000
H        2.71673223      -5.36296600      -3.01549733       0.03799690      -0.01943256       0.04723480       0.17113038       0.02381285      -0.17041154
H        2.07760285      -2.79637008      -2.31506802      -0.13231303      -0.00778259      -0.03549521      -0.81629925       0.21367170      -0.43064405
H        2.91874495      -3.21471377      -0.88483493      -0.17175391       0.21125991      -0.10308653       0.05822855      -0.06690188       0.37094096
9
Properties=species:S:1:pos:R:3:momenta:R:3:forces:R:3 R1=H R2=H R3=CH3 R4=CH3 leaving_group=Cl nucleophile=Cl rxn=sn2 config=rcc label=H_H_CH3_CH3_Cl_Cl_sn2_rcc conformation=0 reactant_id=H_H_CH3_CH3_Cl_none_-_r product_id=H_H_CH3_CH3_none_Cl_sn2_pc mp2_author_energy=-29302.391748605172 mp2_my_energy=0 hash=59123 address=T id=71 energy=-17370.16785996455 pbc="F F F"
C        3.81156322      -5.76845136      -3.17857789       0.52842279      -1.00051589      -0.44304634      -0.65892210       0.29663992       0.43242557
C        2.43121096      -5.22084961      -2.80947524       0.13458527      -0.42919803      -0.25037268       0.82161770      -1.04778913       0.24588838
H        2.13282373      -4.48858002      -3.55172675      -0.17994074      -0.17511456      -0.17707218      -0.07498355      -0.16017179      -0.27916397
F        3.77797196      -4.69366606      -4.93008441       0.65555440      -1.00353721      -0.20951957       0.01623132       0.08784207      -0.68675497
Cl       4.56022476      -6.75595097      -0.82362185       1.15768011      -0.57667000      -0.52556814      -0.15700393      -0.01821614       0.31947471
H        4.59974080      -5.12331112      -2.87541465      -0.02409973      -0.23363695       0.00783460       0.72260271      -0.12958042       0.01537375
H        3.99015944      -6.84710490      -3.23812946      -0.01258973      -0.12033277      -0.24340013      -0.23192427       0.91271873      -0.26245830
H        2.42845795      -4.76262972      -1.83376229      -0.00147386      -0.02630700       0.04917992       0.29994973       0.19908748       0.48459650
H        1.77895843      -6.07391231      -2.72396233       0.18974659      -0.34729671       0.11019540      -0.73756762      -0.14053072      -0.26938167
9
Properties=species:S:1:pos:R:3:momenta:R:3:forces:R:3 R1=H R2=H R3=CH3 R4=CH3 leaving_group=Cl nucleophile=Cl rxn=sn2 config=rcc label=H_H_CH3_CH3_Cl_Cl_sn2_rcc conformation=0 reactant_id=H_H_CH3_CH3_Cl_none_-_r product_id=H_H_CH3_CH3_none_Cl_sn2_pc mp2_author_energy=-29302.391748605172 mp2_my_energy=0 hash=59123 address=T id=71 energy=-17370.567368306813 pbc="F F F"
C        4.51746466      -6.90183974      -3.82387017       0.57029875      -0.63422009      -0.53924402      -0.06897717       2.24082500       0.23463544
C        3.08654912      -7.19666657      -3.55867613       0.46294272      -1.11372161      -0.03773992       0.01234031      -0.87248524       0.90000677
H        2.98140115      -8.27355102      -3.50735523      -0.22473363      -0.11185747      -0.02930064      -0.16809283      -0.41608653       0.06438253
F        4.37225677      -6.17959420      -5.60336415       0.23778154      -0.68833164      -0.44818662       0.01037649      -0.56686632       0.86095596
Cl       5.41952564      -7.44178010      -1.08209426       0.86835126      -0.57858383      -0.35798844      -0.23383137       0.07741495      -0.59363691
H        4.90214586      -5.94819260      -3.43159374       0.23920550      -0.04068946      -0.00393080      -0.00781012      -0.76110871      -0.31148582
H        5.19883664      -7.70515975      -3.88479870      -0.02914941      -0.05989570       0.03983125       0.62024853      -0.47692098      -0.19707541
H        2.44291233      -6.88038453      -4.35465876       0.08291358      -0.05402054      -0.04243592      -0.26768041       0.64709990      -0.46521859
H        2.77534244      -6.83323171      -2.56538112      -0.09659815      -0.09284351      -0.03133238       0.10342656       0.12812794      -0.49256396
9
Properties=species:S:1:pos:R:3:momenta:R:3:forces:R:3 R1=H R2=H R3=CH3 R4=CH3 leaving_group=Cl nucleophile=Cl rxn=sn2 config=rcc label=H_H_CH3_CH3_Cl_Cl_sn2_rcc conformation=0 reactant_id=H_H_CH3_CH3_Cl_none_-_r product_id=H_H_CH3_CH3_none_Cl_sn2_pc mp2_author_energy=-29302.391748605172 mp2_my_energy=0 hash=59123 address=T id=71 energy=-17370.96307961686 pbc="F F F"
C        5.20321544      -8.18020852      -4.48653305       0.39628258      -0.77748456      -0.35373109       0.62197761      -1.21939910       0.53067808
C        4.13893946      -9.21764997      -4.26054022       0.80736949      -0.66232959      -0.26443578       0.16203511       1.81856616       0.64077369
H        4.43419675     -10.16791126      -4.67765738       0.33469009      -0.14054343       0.06250044      -0.10736634      -0.28331269       0.03973122
F        4.87868288      -7.84687375      -6.16701882       0.45041715      -1.41244614      -0.07004430      -0.05183563       0.32337600      -0.10928101
Cl       6.19964180      -8.03207326      -1.44052893       0.82869709      -1.11573490      -0.97011537      -0.42501334      -0.11140151      -1.12824568
H        5.17388152      -7.27057099      -3.92841604       0.05218435      -0.06245805       0.16550132      -0.27565857       0.44886493      -0.01303517
H        6.18879296      -8.57148427      -4.62901193      -0.22287729      -0.03698328      -0.26371786       0.46478539       0.11752610       0.18452822
H        3.27762997      -8.78119759      -4.76917191      -0.09861256      -0.11708010      -0.02362262      -0.25784618      -0.47206608       0.03335650
H        4.00771964      -9.20624276      -3.17203064       0.07717671       0.12883338      -0.08601207      -0.13107805      -0.62215381      -0.17850586
9
Properties=species:S:1:pos:R:3:momenta:R:3:forces:R:3 R1=H R2=H R3=CH3 R4=CH3 leaving_group=Cl nucleophile=Cl rxn=sn2 config=rcc label=H_H_CH3_CH3_Cl_Cl_sn2_rcc conformation=0 reactant_id=H_H_CH3_CH3_Cl_none_-_r product_id=H_H_CH3_CH3_none_Cl_sn2_pc mp2_author_energy=-29302.391748605172 mp2_my_energy=0 hash=59123 address=T id=71 energy=-17371.54651485505 pbc="F F F"
C        5.80355438      -9.43684155      -4.99403409       0.54333667      -0.32529533      -0.50453407       0.68763874       0.69841593      -0.73134100
C        5.35153844     -10.77736512      -4.65770365       0.40961852      -0.46601922       0.27957912       0.45020828      -2.52997090       0.62984577
H        5.71536935     -11.48046365      -5.43133380       0.05847992       0.07560696      -0.08364460      -0.28102626       0.29817862       0.16339530
F        5.39020921      -9.34113334      -6.56798937       0.27425165      -1.39921039      -0.56206237      -0.02720812       0.29994682       0.56328848
Cl       6.76207715      -8.60672846      -1.95455781       0.69537336      -1.12706204      -0.71092153      -0.22296050      -0.26466671      -0.69251910
H        5.31923598      -8.64155758      -4.47498523      -0.08565201      -0.01052604       0.14302953      -0.21010179       0.64329910       0.03843392
H        6.88767991      -9.31029498      -5.06876226       0.05060096       0.21891659       0.07782253      -0.40161102      -0.02286889       0.28832293
H        4.28583521     -10.95794722      -4.50934891      -0.07364111      -0.13091208      -0.01694607      -0.09055566       0.56783051      -0.35558920
H        5.80709876     -11.11420766      -3.72090568       0.15018451      -0.06827159      -0.01187561       0.09561635       0.30983553       0.09616290
9
Properties=species:S:1:pos:R:3:momenta:R:3:forces:R:3 R1=H R2=H R3=CH3 R4=CH3 leaving_group=Cl nucleophile=Cl rxn=sn2 config=rcc label=H_H_CH3_CH3_Cl_Cl_sn2_rcc conformation=0 reactant_id=H_H_CH3_CH3_Cl_none_-_r product_id=H_H_CH3_CH3_none_Cl_sn2_pc mp2_author_energy=-29302.391748605172 mp2_my_energy=0 hash=59123 address=T id=71 energy=-17371.88051652302 pbc="F F F"
C        6.60763258     -10.81994327      -5.55736905      -0.14507232      -0.18954059      -0.52082014      -0.83835995      -0.95072295      -0.05335764
C        6.78941388     -12.26774843      -5.05193313       0.86541335      -0.34585774       0.18860796       0.01108550       1.71610150      -0.28942618
H        7.34286416     -12.84251934      -5.82853629      -0.06255697      -0.12305641      -0.07150086      -0.20444510       0.35720210       0.67428926
F        5.86933150     -11.05044398      -6.87629677       0.55399475      -1.87179891      -0.69472571       0.98159083       0.62988583       0.89010630
Cl       7.33057332      -9.33199510      -2.60331052       1.10634926      -1.36839833      -0.63235248      -0.01864502      -0.25508493      -0.34688437
H        5.97437934     -10.14900268      -4.95505042      -0.15948538      -0.15723874      -0.08219505       0.24306909      -0.71784701      -0.21718773
H        7.57170029     -10.34539193      -5.68190296       0.14938489       0.03151290       0.05307329       0.10486874       0.27715596      -0.68193318
H        5.76684778     -12.62918789      -5.00444471       0.08452512       0.05099830       0.04329478       0.03141310      -0.52723784       0.40857088
H        7.30762221     -12.17261998      -4.07895258       0.17445454      -0.12963001      -0.04699131      -0.31057719      -0.52945267      -0.38417734
9
Properties=species:S:1:pos:R:3:momenta:R:3:forces:R:3 R1=H R2=H R3=CH3 R4=CH3 leaving_group=Cl nucleophile=Cl rxn=sn2 config=rcc label=H_H_CH3_CH3_Cl_Cl_sn2_rcc conformation=0 reactant_id=H_H_CH3_CH3_Cl_none_-_r product_id=H_H_CH3_CH3_none_Cl_sn2_pc mp2_author_energy=-29302.391748605172 mp2_my_energy=0 hash=59123 address=T id=71 energy=-17371.905330828533 pbc="F F F"
C        7.35743496     -12.15661258      -6.02218825       0.05832879      -0.63046382      -0.38151315       0.56371974       0.47432822       0.80382718
C        8.11801617     -13.30665399      -5.42738889       0.71985908      -0.25921034      -0.11464981       0.61570468      -0.77388543       0.43857165
H        8.84349564     -13.78797872      -6.07590876      -0.02659177      -0.11330531      -0.06968508       0.07648224       0.19341708      -0.54721917
F        6.44632765     -12.74323616      -7.04268925       0.46935976      -1.64755204      -0.61735703      -0.72074010      -0.77379242      -0.97494101
Cl       7.85661198     -10.16268840      -3.33672261       1.02069182      -0.98751235      -0.36443928       0.01010891      -0.17960724      -0.25673303
H        6.71611276     -11.76530522      -5.25933821      -0.12442730       0.13579441      -0.06495350      -0.21364839       0.72456903       0.12951360
H        7.87256563     -11.38669849      -6.61701707      -0.03603173      -0.10544538      -0.04236105       0.19317183      -0.41046103       0.83760473
H        7.40702212     -14.09971887      -5.15979667       0.16643901       0.01516887       0.15964539      -0.11703579       0.26909466      -0.04946628
H        8.67041349     -13.07425341      -4.50179980       0.00166013      -0.00265257      -0.05001341      -0.40776312       0.47633712      -0.38115767
9
Properties=species:S:1:pos:R:3:momenta:R:3:forces:R:3 R1=H R2=H R3=CH3 R4=CH3 leaving_group=Cl nucleophile=Cl rxn=sn2 config=rcc label=H_H_CH3_CH3_Cl_Cl_sn2_rcc conformation=0 reactant_id=H_H_CH3_CH3_Cl_none_-_r product_id=H_H_CH3_CH3_none_Cl_sn2_pc mp2_author_energy=-29302.391748605172 mp2_my_energy=0 hash=59123 address=T id=71 energy=-17371.978212144062 pbc="F F F"
C        7.97791626     -13.40104309      -6.30846373       0.43063823      -0.74933779      -0.48027256      -1.35610422      -0.33160889       0.44703082
C        9.20230711     -14.16367411      -5.86901440      -0.07787161      -0.26032672      -0.16508421      -0.83730794       0.55911753       0.39755894
H        9.80412905     -14.22432781      -6.75883866      -0.07055038       0.11872142       0.05284229       0.77194589      -0.44012463      -0.06056840
F        7.12208909     -14.34819052      -7.14857952       0.81629619      -1.49806965      -0.07208730       0.98605043       0.90315374       0.71289368
Cl       8.35762890     -10.97062408      -4.04982940       0.91185730      -0.89831520      -0.38654003       0.05676072      -0.11887633      -0.13887392
H        7.35259225     -12.99524430      -5.50225746       0.08175365       0.02564275      -0.01553660       0.19399888      -0.61767297      -0.23696865
H        8.21047758     -12.56020768      -6.94390198      -0.12693090      -0.06419039      -0.25895523       0.14171448       0.11402488      -0.39788427
H        8.92308726     -15.14817562      -5.48517320      -0.01147954      -0.01317137       0.10924354       0.03749804       0.02870625      -0.19597225
H        9.67640391     -13.59546011      -5.04946801       0.09634997       0.06230213      -0.19206347       0.00544372      -0.09671959      -0.52721595
9
Properties=species:S:1:pos:R:3:momenta:R:3:forces:R:3 R1=H R2=H R3=CH3 R4=CH3 leaving_group=Cl nucleophile=Cl rxn=sn2 config=rcc label=H_H_CH3_CH3_Cl_Cl_sn2_rcc conformation=0 reactant_id=H_H_CH3_CH3_Cl_none_-_r product_id=H_H_CH3_CH3_none_Cl_sn2_pc mp2_author_energy=-29302.391748605172 mp2_my_energy=0 hash=59123 address=T id=71 energy=-17372.01146173504 pbc="F F F"
C        8.59293014     -14.58115894      -6.47704048      -0.25044227      -0.19204075      -1.11639476       0.15401442       0.58985752      -1.43745487
C       10.03842012     -14.94738726      -6.41139662       0.18790039      -0.08388889      -0.12685021       0.72516420       0.61439799       0.76434045
H       10.62927837     -14.87721152      -7.32632676       0.04408756      -0.20205491       0.03160870      -0.63020210      -0.11654339      -0.37605710
F        7.90633278     -15.74870658      -7.13269442       1.02241097      -1.62988224       0.35228769      -0.14368822      -0.00346970      -0.22336704
Cl       8.80690552     -11.77320482      -4.77101826       0.82543477      -0.61276735      -0.37017921       0.08237767       0.02247078       0.01357449
H        8.09421064     -14.44046995      -5.53658895       0.17376362      -0.03885715       0.06311715       0.11034116       0.04458940       0.35533285
H        8.45755399     -13.69695867      -7.12757879       0.02045076      -0.05202673       0.03467688      -0.34342892      -0.50353147       0.40450481
H       10.11640927     -15.94662270      -6.02379763      -0.10080953      -0.07938672      -0.14059810       0.21551623      -0.56099475       0.27906554
H       10.53962194     -14.24401967      -5.73899596      -0.09692324      -0.02750328       0.01790334      -0.17009443      -0.08677638       0.22006088
9
Properties=species:S:1:pos:R:3:momenta:R:3:forces:R:3 R1=H R2=H R3=CH3 R4=CH3 leaving_group=Cl nucleophile=Cl rxn=sn2 config=rcc label=H_H_CH3_CH3_Cl_Cl_sn2_rcc conformation=0 reactant_id=H_H_CH3_CH3_Cl_none_-_r product_id=H_H_CH3_CH3_none_Cl_sn2_pc mp2_author_energy=-29302.391748605172 mp2_my_energy=0 hash=59123 address=T id=71 energy=-17371.958826045622 pbc="F F F"
C        9.38268988     -15.78250649      -6.67554689       0.25091606      -0.80382138      -0.33393145       0.89109103      -0.29420343       1.74616935
C       10.83340901     -15.77566933      -7.03965386       0.09661368      -0.38386739      -0.74440870      -0.42481091      -0.12169174       0.41926446
H       10.95078220     -16.04482802      -8.07365742       0.17914940       0.05213987      -0.23500915       0.33127622       0.36293743      -0.68625907
F        8.80361211     -17.11235120      -7.01944035       1.18416763      -2.06224125       0.41317872      -0.19992974      -0.81838680      -0.33403645
Cl       9.26607407     -12.74618132      -5.57700300       1.09521476      -0.91810520      -0.96686312       0.05966545       0.35348869       0.11364736
H        9.38217091     -15.72353668      -5.56858709      -0.28940714      -0.01309850      -0.02730661      -0.74172823       0.21948433      -0.70680356
H        8.77564383     -15.04543681      -7.14651214      -0.01486321      -0.02714653      -0.21178240      -0.30362161       0.51372850      -0.18716512
H       11.31260545     -16.55817082      -6.45262540       0.01275223       0.15133105       0.07579175       0.19647692       0.03478938       0.11236708
H       11.18837839     -14.78321226      -6.72801059       0.14565956      -0.24716086       0.20269320       0.19158087      -0.25014635      -0.47718404
9
Properties=species:S:1:pos:R:3:momenta:R:3:forces:R:3 R1=H R2=H R3=CH3 R4=CH3 leaving_group=Cl nucleophile=Cl rxn=sn2 config=rcc label=H_H_CH3_CH3_Cl_Cl_sn2_rcc conformation=0 reactant_id=H_H_CH3_CH3_Cl_none_-_r product_id=H_H_CH3_CH3_none_Cl_sn2_pc mp2_author_energy=-29302.391748605172 mp2_my_energy=0 hash=59123 address=T id=71 energy=-17371.959492179805 pbc="F F F"
C       10.21350021     -16.92075529      -6.89447038      -0.03631393      -0.36542400      -0.66226183      -0.76529543      -1.80506518      -0.68981535
C       11.45813805     -16.75203009      -7.72160579       0.71164334      -0.20707910       0.33685635       0.39606755       1.24493355      -0.15255275
H       11.37042693     -17.12418490      -8.72901832      -0.23493849       0.05594045      -0.01769028      -0.31882395      -0.40191794      -0.35795118
F        9.85025852     -18.40494599      -6.84084210       1.20075759      -1.63174898       0.39141629       0.63559037       1.21898715      -0.11059022
Cl       9.74150058     -13.80261793      -6.39879756       1.22292922      -2.12445581      -1.44434642      -0.04273752       0.58211542       0.08932253
H       10.33757261     -16.61189633      -5.87996266      -0.15248816       0.21106073      -0.16214106       0.10050522       0.14042616       0.63732328
H        9.30570319     -16.43775522      -7.29631738       0.05858612      -0.27668244       0.04279169       0.81429557      -0.18837386       0.02320997
H       12.40122097     -17.10753643      -7.30997455       0.17452705      -0.24180036      -0.12685776      -0.34542394      -0.62088747       0.49007922
H       11.65645303     -15.67120026      -7.81843570      -0.14869202       0.11114922      -0.27870865      -0.47417787      -0.17021784       0.07097450
9
Properties=species:S:1:pos:R:3:momenta:R:3:forces:R:3 R1=H R2=H R3=CH3 R4=CH3 leaving_group=Cl nucleophile=Cl rxn=sn2 config=rcc label=H_H_CH3_CH3_Cl_Cl_sn2_rcc conformation=0 reactant_id=H_H_CH3_CH3_Cl_none_-_r product_id=H_H_CH3_CH3_none_Cl_sn2_pc mp2_author_energy=-29302.391748605172 mp2_my_energy=0 hash=59123 address=T id=71 energy=-17371.898709903948 pbc="F F F"
C       11.28285447     -18.20998267      -7.15813379      -0.14579076      -0.46810020      -0.18803189      -0.04935048      -0.30622530       0.65977103
C       12.03544958     -18.14658614      -8.46970534      -0.07192691      -0.13448681      -0.38107707      -1.14249985      -0.99847487       1.27229224
H       11.54982844     -18.91361432      -9.08716839       0.10159687      -0.11099494      -0.11887939       0.23435412       0.17651868      -0.13439514
F       11.24799718     -19.65470585      -6.70330095       1.40725787      -0.33827283       0.30436068       0.35654231       0.52073246      -0.19876185
Cl      10.28599588     -15.12563369      -7.38356875       1.23498611      -2.25345323      -1.14522688      -0.06909574       0.27819992      -0.02909140
H       11.57895377     -17.59808794      -6.27549642      -0.08992193      -0.06693185       0.09913197       0.32637702      -0.58188207      -1.02658297
H       10.27772211     -17.95807784      -7.36921464       0.01523766      -0.21269455      -0.22255496      -1.06483204       0.21170053       0.06648140