9
Properties=species:S:1:pos:R:3:momenta:R:3:forces:R:3 R1=H R2=H R3=CH3 R4=CH3 leaving_group=Cl nucleophile=Cl rxn=sn2 config=rcc label=H_H_CH3_CH3_Cl_Cl_sn2_rcc conformation=0 reactant_id=H_H_CH3_CH3_Cl_none_-_r product_id=H_H_CH3_CH3_none_Cl_sn2_pc mp2_author_energy=-29302.391748605172 mp2_my_energy=0 hash=59123 address=T id=71 energy=-17370.412368016237 pbc="F F F"
C        0.12542541       0.11270554      -0.00029240       0.75172149      -0.99125088       0.56225601      -0.09214561       1.11788396      -0.00082481
C        1.62503867       0.00847468       0.00156754       0.89105975       0.58381509       0.66263308      -0.06338950      -0.85342640       0.00215309
H        1.99473018      -0.50605055       0.89354482      -0.14914263       0.11120737       0.03612504       0.00320508       0.00300841       0.00517082
F        0.89788639       2.64149152      -0.00442372       0.21227387      -0.28826044       0.03639518      -0.23271315      -0.10403772      -0.00076135
Cl      -0.69504884      -1.53494042       0.00509220      -1.77269397      -0.66112255      -0.08839950       0.38207948      -0.16174994      -0.00050876
H       -0.22306082       0.64592326      -0.87549887      -0.03584669      -0.07146829      -0.05998998      -0.00302890      -0.00293595      -0.00472561
H       -0.22431889       0.65275656       0.87018381       0.26179313      -0.18227620      -0.01950020      -0.00396382      -0.00350204       0.00469305
H        1.88822962       1.08069343      -0.00059746      -0.36950537       0.22530475      -0.03659972       0.00778691       0.00253743      -0.00033365
H        1.99700981      -0.51031959      -0.88698835       0.10883345      -0.09050628      -0.03317244       0.00216950       0.00222225      -0.00486279
9
Properties=species:S:1:pos:R:3:momenta:R:3:forces:R:3 R1=H R2=H R3=CH3 R4=CH3 leaving_group=Cl nucleophile=Cl rxn=sn2 config=rcc label=H_H_CH3_CH3_Cl_Cl_sn2_rcc conformation=0 reactant_id=H_H_CH3_CH3_Cl_none_-_r product_id=H_H_CH3_CH3_none_Cl_sn2_pc mp2_author_energy=-29302.391748605172 mp2_my_energy=0 hash=59123 address=T id=71 energy=-17369.976192491078 pbc="F F F"
C        0.19076775      -0.38946673       0.36648264       0.35438777      -0.62097271       0.38243214      -1.67727581      -2.80143957       2.08203008
C        1.26737633      -0.97232182       1.32553231      -0.01320678      -0.24850833       0.60486289      -1.78100972       3.16353473       0.51606402
H        0.71759961      -1.10428659       2.30027747      -0.22460919       0.14833590      -0.07520767       0.90061937       0.24982400      -0.72193579
F        1.20913869       1.97359010       0.26502855       0.53547612      -0.68349957       0.38856879       1.18761316       2.34784311       0.01530559
Cl      -0.83187868      -1.88716340       0.18121841      -0.80875041      -0.91123178       0.13689909      -0.85899983      -0.35408483      -0.53575739
H        0.49847020      -0.00510434      -0.56834739      -0.04708896      -0.10214922       0.05936890       0.64247583       0.01654608      -0.83571974
H       -0.42390639       0.41904180       0.82097637       0.09571435      -0.17112005       0.13158599       0.74131492      -0.77817555      -0.21998610
H        2.01862177      -0.16267873       1.35040401      -0.10486778       0.10772607       0.24441893      -0.07971608      -0.75500414       0.28735981
H        1.57007485      -1.92852766       1.01712765       0.02378359      -0.06147445       0.10194249       0.92497816      -1.08904382      -0.58736046
9
Properties=species:S:1:pos:R:3:momenta:R:3:forces:R:3 R1=H R2=H R3=CH3 R4=CH3 leaving_group=Cl nucleophile=Cl rxn=sn2 config=rcc label=H_H_CH3_CH3_Cl_Cl_sn2_rcc conformation=0 reactant_id=H_H_CH3_CH3_Cl_none_-_r product_id=H_H_CH3_CH3_none_Cl_sn2_pc mp2_author_energy=-29302.391748605172 mp2_my_energy=0 hash=59123 address=T id=71 energy=-17370.185172111633 pbc="F F F"
C        0.23905328      -1.35040782       0.89618358       0.74137262      -0.24599768      -0.32073589       0.35854505       2.75106514      -0.35690846
C        0.23683796      -1.12070765       2.34791083      -0.95680375      -0.53461171      -0.61872844       0.54841537      -1.49161898       1.00774381
H       -0.76422786      -0.97385541       2.70268792      -0.19183709       0.00589121      -0.27912947      -0.55869812       0.32438965       0.50684658
F        2.07798418       0.57810711       1.15519804       0.67654779      -1.09827137       1.14595598      -1.13324251      -1.31329417      -0.30848223
Cl      -1.03576892      -2.59052406       0.54182045      -0.40471357      -0.96659785       1.87075241       0.01546812      -0.96402193      -0.11975923
H        1.23280841      -1.55853861       0.60461896      -0.14951838       0.09115420      -0.03719977       0.75454668      -0.61572537      -0.78248801
H       -0.12810411      -0.50733836       0.34346976       0.07970184       0.19267184      -0.09136268       0.37674088       0.52613339      -0.13556043
H        0.93235588      -0.27394102       2.47571731      -0.17050560      -0.12054242       0.28886773      -0.11048196      -0.19481637      -0.02607874
H        0.63270204      -2.08259883       2.77390441       0.18871395       0.16189688      -0.00567219      -0.25129352       0.97788865       0.21468670
9
Properties=species:S:1:pos:R:3:momenta:R:3:forces:R:3 R1=H R2=H R3=CH3 R4=CH3 leaving_group=Cl nucleophile=Cl rxn=sn2 config=rcc label=H_H_CH3_CH3_Cl_Cl_sn2_rcc conformation=0 reactant_id=H_H_CH3_CH3_Cl_none_-_r product_id=H_H_CH3_CH3_none_Cl_sn2_pc mp2_author_energy=-29302.391748605172 mp2_my_energy=0 hash=59123 address=T id=71 energy=-17370.199076008026 pbc="F F F"
C        0.23544144      -2.02443046       1.57102689       0.12144750      -0.73657266       0.42122614      -0.31353846      -0.68809747       2.68047786
C       -0.31887826      -1.01245546       2.59128634      -0.24688517       0.26958367       0.06863552      -0.76239023      -0.01608943      -1.09815774
H       -1.02881040      -0.32704702       2.10696582       0.02554729      -0.10874840       0.07019693      -0.08989504      -0.16746833       0.15304785
F        2.41842783      -1.01651727       2.19300292       0.59871255      -1.07727545       0.38900617      -0.12411158      -0.00429524      -0.14498404
Cl      -1.11607198      -3.21986995       0.92581369      -0.09018634      -0.52638596       0.32296510       0.40266641       1.15349275       0.29911463
H        0.93790307      -2.65378930       2.08329944      -0.01432273       0.26422837       0.24302191       0.14352659      -0.25958912      -0.04308416
H        0.79611229      -1.50695288       0.86142151      -0.13317056      -0.03078947       0.04941928       0.42278739       0.51809800      -1.60918461
H        0.57934034      -0.45039531       2.83230219       0.02341643       0.08396841       0.05505587       0.35476461      -0.11871869      -0.00438321
H       -0.76054515      -1.40220721       3.50992365      -0.43193189      -0.11914197      -0.08093196      -0.03380970      -0.41733247      -0.23284657
9
Properties=species:S:1:pos:R:3:momenta:R:3:forces:R:3 R1=H R2=H R3=CH3 R4=CH3 leaving_group=Cl nucleophile=Cl rxn=sn2 config=rcc label=H_H_CH3_CH3_Cl_Cl_sn2_rcc conformation=0 reactant_id=H_H_CH3_CH3_Cl_none_-_r product_id=H_H_CH3_CH3_none_Cl_sn2_pc mp2_author_energy=-29302.391748605172 mp2_my_energy=0 hash=59123 address=T id=71 energy=-17370.177129457752 pbc="F F F"
C        0.30115309      -2.70566160       2.08935304       0.01042624       0.26308306       0.54977684      -0.55958336      -0.41383731       0.90602602
C        0.00423492      -1.26943539       2.30456588       0.61557302       0.93623638       0.38513546      -1.41835381       0.20693600      -1.97437352
H       -0.08944724      -0.69647717       1.34323230       0.05085085      -0.25244359      -0.17042166       0.12647225      -0.52523923       0.80402964
F        2.24166560      -2.01860872       3.16667384      -0.55742815      -1.02217534       0.58980379       0.33796069      -0.28890923      -0.00131084
Cl      -1.27091495      -3.56406431       1.31433410      -0.27915805      -1.69675997       0.19192116       0.27827205       0.51968781      -0.05295878
H        0.43284776      -3.24794019       2.99100893      -0.21009644      -0.38261131      -0.11444264      -0.05729060      -0.22895269       0.65362825
H        1.08734429      -2.95468420       1.46263514      -0.05921757       0.05719009       0.02135227       1.22809936      -0.16328079      -1.27988698
H        0.83210439      -0.95617667       2.89992833       0.19235396      -0.05818134      -0.03844136       0.76180635       0.41967789       0.44038158
H       -0.93651655      -1.23657510       2.81033326       0.09418587       0.23989767       0.07314391      -0.69738293       0.47391755       0.50446465
9
Properties=species:S:1:pos:R:3:momenta:R:3:forces:R:3 R1=H R2=H R3=CH3 R4=CH3 leaving_group=Cl nucleophile=Cl rxn=sn2 config=rcc label=H_H_CH3_CH3_Cl_Cl_sn2_rcc conformation=0 reactant_id=H_H_CH3_CH3_Cl_none_-_r product_id=H_H_CH3_CH3_none_Cl_sn2_pc mp2_author_energy=-29302.391748605172 mp2_my_energy=0 hash=59123 address=T id=71 energy=-17370.078622199584 pbc="F F F"
C        0.19904354      -3.28880279       2.73531860      -0.31559247       0.00799256       1.13185526       0.17171528       2.21424584      -0.40153072
C        0.40685986      -1.90058000       2.09105688       0.70897475      -0.81206045       0.68362552       0.57180731      -1.14611016      -0.43218549
H        0.63534633      -1.99227422       1.01669424       0.15338357       0.08766012      -0.04895653      -0.08100368      -0.22401196       0.34072378
F        1.90821234      -3.01258565       4.05010590      -0.47553362      -0.02577094      -0.23340810      -0.25113345       0.07346146      -0.39217299
Cl      -1.31518036      -3.82786451       1.68498203      -0.27717114      -0.71745715      -0.17549454      -1.23582799      -0.52396269      -0.20810392
H       -0.01790391      -3.28443345       3.77354039       0.07191678      -0.18942507       0.22158025      -0.66294740      -0.06830626       0.41455879
H        0.82932969      -4.06149985       2.46320246      -0.32326280      -0.24636572      -0.01290563       1.45545005      -0.88693041      -0.21841182
H        1.23139986      -1.43004937       2.56229004       0.11567485      -0.07745889      -0.02992592       0.69891968       0.27107310       0.61718717
H       -0.47182033      -1.28960220       2.14754935       0.19923464       0.05893339      -0.04994995      -0.66697982       0.29054108       0.27993521
9
Properties=species:S:1:pos:R:3:momenta:R:3:forces:R:3 R1=H R2=H R3=CH3 R4=CH3 leaving_group=Cl nucleophile=Cl rxn=sn2 config=rcc label=H_H_CH3_CH3_Cl_Cl_sn2_rcc conformation=0 reactant_id=H_H_CH3_CH3_Cl_none_-_r product_id=H_H_CH3_CH3_none_Cl_sn2_pc mp2_author_energy=-29302.391748605172 mp2_my_energy=0 hash=59123 address=T id=71 energy=-17370.07244393143 pbc="F F F"
C        0.23780353      -3.60833497       3.31395491       0.82512868       0.45795802      -0.70335623      -0.28858295       0.21175436      -0.63920388
C        1.16277509      -3.18050239       2.23227260      -0.00823768      -0.56905626       0.39241467       0.94755876      -0.82645210       0.14162685
H        1.28934115      -4.01975245       1.51050343      -0.02797627      -0.25792636       0.11901556       0.12880900       0.59960075       0.54537842
F        1.43317529      -3.70776839       4.88098545      -0.49982976      -1.34435333       1.11674420       0.38670145       0.43838899      -0.31114281
Cl      -1.48649459      -4.12779208       2.00226433      -0.61159630      -0.77232824       0.62115976      -0.20749384       0.32595194      -0.15781678
H       -0.27988280      -2.93468503       3.93575110      -0.12067542       0.05694088      -0.24084264      -0.45374597       0.52621461       0.18723899
H        0.23182138      -4.60113566       3.55652103      -0.03063051       0.12313310       0.44696763      -0.11412322      -1.74266450       0.63204860
H        2.08547827      -2.95469199       2.76835239       0.27792323       0.09836768      -0.08585925       0.09810205      -0.16377196      -0.14983916
H        0.85650005      -2.32191634       1.67293115       0.02773767      -0.05326048       0.08933333      -0.49722527       0.63097791      -0.24829024
9
Properties=species:S:1:pos:R:3:momenta:R:3:forces:R:3 R1=H R2=H R3=CH3 R4=CH3 leaving_group=Cl nucleophile=Cl rxn=sn2 config=rcc label=H_H_CH3_CH3_Cl_Cl_sn2_rcc conformation=0 reactant_id=H_H_CH3_CH3_Cl_none_-_r product_id=H_H_CH3_CH3_none_Cl_sn2_pc mp2_author_energy=-29302.391748605172 mp2_my_energy=0 hash=59123 address=T id=71 energy=-17370.31341945859 pbc="F F F"
C        0.37793400      -4.16501079       3.81424204       0.20434779      -0.55994353      -0.53389638      -3.40918840       1.81492500       0.66855933
C        1.29700436      -4.84468156       2.99100779      -0.47915576      -0.80721393       0.70976687       2.91761695      -1.92012265      -0.75562179
H        1.18528903      -5.94971526       3.12407951       0.15516579      -0.03796035       0.24942589       0.02775826       0.81027326      -0.62705261
F        0.97206967      -4.34453845       5.42361606      -0.27535735      -0.61962536       0.28445299       0.55276557      -0.33198629       0.97132262
Cl      -1.44549527      -4.32372588       2.34423145       0.62623184       0.05998820       0.88135661      -0.71420438       0.10854517      -0.28351803
H        0.40869300      -3.07368367       3.76359063      -0.01901295      -0.20702429       0.05895363      -0.26172906      -0.64129398       0.01929703
H       -0.66362488      -4.58184559       3.79879650      -0.15133048      -0.06396715      -0.14658545       1.10348255       0.74027233       0.33362502
H        2.35117622      -4.62280493       3.27488444      -0.02380248       0.19384130       0.15803343      -0.66275012       0.08540847      -0.20273367
H        1.07221051      -4.45568568       1.99524972      -0.20997305      -0.28220893       0.14345418       0.44624865      -0.66602129      -0.12387791
9
Properties=species:S:1:pos:R:3:momenta:R:3:forces:R:3 R1=H R2=H R3=CH3 R4=CH3 leaving_group=Cl nucleophile=Cl rxn=sn2 config=rcc label=H_H_CH3_CH3_Cl_Cl_sn2_rcc conformation=0 reactant_id=H_H_CH3_CH3_Cl_none_-_r product_id=H_H_CH3_CH3_none_Cl_sn2_pc mp2_author_energy=-29302.391748605172 mp2_my_energy=0 hash=59123 address=T id=71 energy=-17370.977437494355 pbc="F F F"
C        0.39728933      -4.99947617       4.39932777      -0.65939823       0.58223457       0.70906790       0.52214005       0.84948869      -0.65717512
C        0.92184114      -6.31949290       3.90375371       0.49675650      -1.15981477       0.64187301       1.20107924      -0.67922538       1.17772169
H        0.72387408      -7.10264598       4.69513080      -0.27140861      -0.14639203       0.07751094      -0.01103705       0.66826811      -0.89261580
F        0.73348290      -4.97607800       5.96423845       0.05168179      -0.80953386      -0.53741726      -0.27066073      -0.19414791      -0.04398820
Cl      -1.28582219      -4.50146453       2.58413136       0.28929623      -0.14536358       0.63258571       0.36408154      -0.23058309       0.27219598
H        0.99862189      -4.14386607       4.10216155       0.04014362      -0.07092197       0.12766130      -0.16049635      -0.24728240      -0.17048014
H       -0.64436939      -4.73000787       4.17994268      -0.18538687       0.06393154      -0.18887099      -0.04426330      -0.40225963       0.37042110
H        2.06657166      -6.27403196       3.82321075       0.03873008      -0.05197039       0.14781686      -1.66858282       0.00459822      -0.07683139
H        0.47207141      -6.62543632       2.95986580       0.04556220      -0.33270368      -0.00220180       0.06773941       0.23114340       0.02075188
9
Properties=species:S:1:pos:R:3:momenta:R:3:forces:R:3 R1=H R2=H R3=CH3 R4=CH3 leaving_group=Cl nucleophile=Cl rxn=sn2 config=rcc label=H_H_CH3_CH3_Cl_Cl_sn2_rcc conformation=0 reactant_id=H_H_CH3_CH3_Cl_none_-_r product_id=H_H_CH3_CH3_none_Cl_sn2_pc mp2_author_energy=-29302.391748605172 mp2_my_energy=0 hash=59123 address=T id=71 energy=-17371.30220223489 pbc="F F F"
C        0.46394364      -5.84132553       4.94531801      -0.75901222      -1.08927948       0.63205729      -1.50826731      -0.77150241      -0.11348634
C       -0.11924726      -7.23925813       4.68614206      -0.15031460       0.10789869       0.11789671      -0.29428979      -0.35424768       0.96040926
H       -1.22003802      -7.32970418       4.87105358      -0.16138487      -0.14044359       0.07213151       0.89522340       0.43322172       0.41221568
F        0.50717355      -5.70309025       6.40741745       0.31656560       0.20433569      -0.09687496       0.31935048      -0.19983566       0.30624403
Cl      -0.85969640      -4.94960200       3.02072741       0.78240444      -0.24647502       0.54451823      -0.02309132       0.32619137      -0.06930699
H        1.50963458      -5.78749034       4.61006356      -0.08258901       0.01586960       0.08396157      -0.56633610       0.34789599      -0.03755676
H       -0.26175113      -5.06080335       4.66011080      -0.05884224      -0.24524935      -0.05583994       0.87492568      -0.12098262      -0.78764116
H        0.42165832      -7.93571403       5.34791468       0.01717828      -0.12493512       0.05185375      -0.28432971       0.03237787      -0.28563775
H       -0.05440616      -7.58399223       3.66344482      -0.01888288      -0.02601867      -0.15036651       0.58681468       0.30688142      -0.38523997
9
Properties=species:S:1:pos:R:3:momenta:R:3:forces:R:3 R1=H R2=H R3=CH3 R4=CH3 leaving_group=Cl nucleophile=Cl rxn=sn2 config=rcc label=H_H_CH3_CH3_Cl_Cl_sn2_rcc conformation=0 reactant_id=H_H_CH3_CH3_Cl_none_-_r product_id=H_H_CH3_CH3_none_Cl_sn2_pc mp2_author_energy=-29302.391748605172 mp2_my_energy=0 hash=59123 address=T id=71 energy=-17371.48846015542 pbc="F F F"
C        0.14560252      -6.48134351       5.39605840       0.06380896      -0.31162894      -0.30108241       0.33736921       0.85455334       0.41988059
C       -0.79518710      -7.68369152       5.24451148      -0.08731054       0.88179952       0.61351723       1.33120256       0.20774611       1.80251895
H       -1.72433645      -7.52760293       5.80831709      -0.16352078       0.05007751       0.05260454       0.00351787       0.11898305      -0.44040901
F        0.47184628      -6.29636855       6.71783481      -0.51733121      -1.24893569       0.31264002      -0.14591445      -0.41218474      -0.22817772
Cl      -0.51252812      -5.28167100       3.28365236       0.09018006      -1.06717377       0.53568783      -0.15870928       0.19239149       0.02233861
H        1.09590973      -6.63243930       4.83193365       0.20482237       0.11094478       0.17986091      -0.86694591      -0.04976833       0.41804160
H       -0.29586926      -5.50231817       5.05450110       0.22523813       0.17269651      -0.07090585       0.27186745      -1.14697507      -0.60015154
H       -0.28799314      -8.54314631       5.75969653      -0.08957633      -0.34229039       0.03840467      -0.34709671       0.54364822      -0.74291759
H       -0.92613951      -7.85373758       4.19995520       0.14469931       0.02049836      -0.01405225      -0.42529075      -0.30839407      -0.65112389
9
Properties=species:S:1:pos:R:3:momenta:R:3:forces:R:3 R1=H R2=H R3=CH3 R4=CH3 leaving_group=Cl nucleophile=Cl rxn=sn2 config=rcc label=H_H_CH3_CH3_Cl_Cl_sn2_rcc conformation=0 reactant_id=H_H_CH3_CH3_Cl_none_-_r product_id=H_H_CH3_CH3_none_Cl_sn2_pc mp2_author_energy=-29302.391748605172 mp2_my_energy=0 hash=59123 address=T id=71 energy=-17371.431933388612 pbc="F F F"
C       -0.10353892      -7.41801605       5.88712833      -1.33060231      -0.75309737      -0.56968474      -0.92944144      -0.89198785       1.82356716
C       -1.60437478      -7.80281247       5.87892692      -0.44665394      -0.27213030       0.57988281       1.15436565       1.21845128      -0.60524831
H       -2.08397626      -7.03961703       6.48458550       0.21795153       0.26491289       0.14362710      -0.66810958      -0.16725732       0.09439454
F        0.29442161      -7.17801198       7.19423588       0.11532889      -0.37008461       0.67263830      -0.52942267      -0.40542762      -1.69967520
Cl      -0.07723465      -5.86464582       3.71983386       1.23464128      -0.75750452       0.85996580      -0.10672364      -0.36510674       0.37561468
H        0.39500628      -8.32589628       5.55240298      -0.11098537       0.14351129       0.01642543       0.68173818       0.44526988      -0.29180880
H        0.06784218      -6.52679918       5.29549139      -0.21984495      -0.20657339      -0.16592859       0.32516842       0.15195593      -0.31205989
H       -1.80040511      -8.81068056       6.20564550       0.23007759      -0.30617160      -0.04319046       0.13547942      -0.27433421       0.66155845
H       -1.94637925      -7.75527424       4.84760227       0.14689047       0.06328375       0.21006297      -0.06305435       0.28843667      -0.04634263
9
Properties=species:S:1:pos:R:3:momenta:R:3:forces:R:3 R1=H R2=H R3=CH3 R4=CH3 leaving_group=Cl nucleophile=Cl rxn=sn2 config=rcc label=H_H_CH3_CH3_Cl_Cl_sn2_rcc conformation=0 reactant_id=H_H_CH3_CH3_Cl_none_-_r product_id=H_H_CH3_CH3_none_Cl_sn2_pc mp2_author_energy=-29302.391748605172 mp2_my_energy=0 hash=59123 address=T id=71 energy=-17371.397612763838 pbc="F F F"
C       -0.46474460      -8.04371622       6.31646954       0.07134155      -0.41609099       0.56995020       2.79081186      -0.80496907       2.16982186
C       -1.83124781      -7.53173164       6.29230430       0.56466445       0.17498445       0.42027662      -1.24549214       0.83552077      -1.11954538
H       -1.91922506      -6.52097504       6.65575728      -0.33310359       0.24107944      -0.09491623       0.14081300       0.58339183       0.27244114
F       -0.04544640      -8.31570315       7.63857104      -0.72808955      -1.14012121       0.34973484      -1.12210158       0.85304679      -3.30183782
Cl       0.23183017      -6.62973341       4.30354310      -0.10710480      -1.43536032       1.02577027       0.16500461       0.21940448      -0.50829396
H       -0.47531113      -8.99232093       5.78441405       0.06093897       0.00120618      -0.30131936       0.27951525      -0.10419788       0.10604901
H        0.27625199      -7.38258115       5.76480397       0.14978455       0.12348308      -0.18736115      -0.71823313      -0.75713624       1.08751819
H       -2.47308245      -8.13497501       6.91183318      -0.17258107       0.15509100       0.09195113      -0.47356179      -0.52387775      -0.00976474
H       -2.14866526      -7.49189235       5.20580092       0.32400298       0.00844982      -0.09773188       0.18324392      -0.30118293       1.30361170
9
Properties=species:S:1:pos:R:3:momenta:R:3:forces:R:3 R1=H R2=H R3=CH3 R4=CH3 leaving_group=Cl nucleophile=Cl rxn=sn2 config=rcc label=H_H_CH3_CH3_Cl_Cl_sn2_rcc conformation=0 reactant_id=H_H_CH3_CH3_Cl_none_-_r product_id=H_H_CH3_CH3_none_Cl_sn2_pc mp2_author_energy=-29302.391748605172 mp2_my_energy=0 hash=59123 address=T id=71 energy=-17371.36717522831 pbc="F F F"
C       -0.85103588      -8.57091543       6.72735726      -0.98881148      -0.05948810       0.61311013      -0.36748337      -0.76619337       2.58268396
C       -1.81104423      -7.47164797       7.14077568       0.22948861      -0.77531387       0.54358626       1.47019001       1.13244146      -2.61261984
H       -1.48577355      -6.84268359       7.95173065       0.19583645      -0.00938544       0.21246290       0.57554120       0.09457948       0.47009810
F       -0.71118423      -9.36951323       7.86188794      -0.09803909      -0.20577637      -0.40102377       0.32988301       0.72254652      -2.19505516
Cl       0.60544915      -7.52144216       4.91712024       0.89561717      -1.28979451       0.75113805      -0.01245980       0.38301382      -0.25510478
H       -1.25245610      -9.14051789       5.87546764      -0.09399642       0.02620872       0.00697890       0.09234683       0.02549721       0.60963789
H        0.10158952      -8.10331096       6.37385423      -0.16446523      -0.20284902       0.29582541      -0.27439272      -0.74162373       0.67281780
H       -2.77251643      -7.82979590       7.38624344      -0.15655587       0.05075046      -0.04397294      -1.23116127      -0.64844999       0.02763634
H       -1.80255913      -6.84045569       6.22617614       0.01209853       0.19610354      -0.21552310      -0.58246389      -0.20181139       0.69990568
9
Properties=species:S:1:pos:R:3:momenta:R:3:forces:R:3 R1=H R2=H R3=CH3 R4=CH3 leaving_group=Cl nucleophile=Cl rxn=sn2 config=rcc label=H_H_CH3_CH3_Cl_Cl_sn2_rcc conformation=0 reactant_id=H_H_CH3_CH3_Cl_none_-_r product_id=H_H_CH3_CH3_none_Cl_sn2_pc mp2_author_energy=-29302.391748605172 mp2_my_energy=0 hash=59123 address=T id=71 energy=-17371.36871637252 pbc="F F F"
C       -1.22644259      -9.10202242       7.06228418       0.01252338      -1.54302366       0.55012091      -0.79415031      -1.45741666      -0.40509302
C       -1.26494467      -7.84402079       7.74538749      -0.32129875      -0.87796596       1.01316876      -1.33158709       1.38991989       0.32937988
H       -0.46521964      -7.86364196       8.42144682       0.06403132      -0.08158555       0.04431364       0.94707893       0.47118695       1.19981934
F       -1.51684401     -10.05435536       8.00453956      -0.37366229       1.27673324      -0.71282558       0.26573616      -0.10771672      -0.57081136
Cl       0.83186699      -8.35473038       5.66262215       0.22894782      -1.58216447       1.09763804       0.04675657      -0.04818399      -0.15211125
H       -2.03523865      -9.09328160       6.32343075      -0.05575337       0.32244679       0.00864341       0.38785097      -0.39958645      -0.13075752
H       -0.24549195      -9.23246256       6.62128193       0.25388641      -0.15131938      -0.07262951       0.17960161      -0.64070440      -0.30987719
H       -2.23306083      -7.70253839       8.21179536      -0.07376005      -0.00411274       0.13048749      -0.11505359       0.05564547       0.47794336
H       -1.15111584      -7.08900725       7.00529615       0.07990267       0.15157975      -0.12558112       0.41376675       0.73685590      -0.43849223
9
Properties=species:S:1:pos:R:3:momenta:R:3:forces:R:3 R1=H R2=H R3=CH3 R4=CH3 leaving_group=Cl nucleophile=Cl rxn=sn2 config=rcc label=H_H_CH3_CH3_Cl_Cl_sn2_rcc conformation=0 reactant_id=H_H_CH3_CH3_Cl_none_-_r product_id=H_H_CH3_CH3_none_Cl_sn2_pc mp2_author_energy=-29302.391748605172 mp2_my_energy=0 hash=59123 address=T id=71 energy=-17371.224357213185 pbc="F F F"
C       -1.33914151      -9.55020952       7.65034476       0.11048810      -0.32362944       0.83000024       2.10027403       1.81867279      -1.07656213
C       -1.00527656      -8.71613617       8.88874556       0.02436535      -0.06122693      -0.46540060      -1.39163981       0.06276707      -0.87117597
H       -0.56990844      -9.17666840       9.76686654       0.06924915      -0.22677955       0.04700081      -0.33828406      -0.64690873      -0.00647860
F       -2.34605950     -10.40365076       7.84108494      -0.41820050      -0.09250409      -0.11134673      -1.70525984      -1.77791769       0.84525531
Cl       1.04134733      -9.56996556       6.53326474      -0.08987748      -1.60447058       1.84988916      -0.14439332       0.01509737       0.16320365
H       -1.71169923      -8.86462077       6.81022146       0.11915843       0.00967317      -0.15473634       1.05998398      -0.74171769       1.28267543
H       -0.38093654     -10.07145085       7.33806081      -0.20893192       0.02609111      -0.19586977      -1.19762336       0.44201834      -0.07900694
H       -1.79469518      -7.99022557       9.13320287       0.10537417      -0.20956217       0.36754754      -0.01286488      -0.51520703       0.16224972
H       -0.24665171      -8.16998290       8.44430652       0.08094820      -0.30602442      -0.00152158       1.62980727       1.34319557      -0.42016048
9
Properties=species:S:1:pos:R:3:momenta:R:3:forces:R:3 R1=H R2=H R3=CH3 R4=CH3 leaving_group=Cl nucleophile=Cl rxn=sn2 config=rcc label=H_H_CH3_CH3_Cl_Cl_sn2_rcc conformation=0 reactant_id=H_H_CH3_CH3_Cl_none_-_r product_id=H_H_CH3_CH3_none_Cl_sn2_pc mp2_author_energy=-29302.391748605172 mp2_my_energy=0 hash=59123 address=T id=71 energy=-17371.36758655932 pbc="F F F"
C       -1.31812121      -9.89653484       8.06555231       0.51843499       0.10207958       1.10394415      -0.16235744       2.75926623      -0.12747279
C       -1.05018489      -9.81450436       9.49094807       0.05987949      -0.79558157       0.51799666      -1.05471124      -0.87799394       1.22837385
H       -1.27139842     -10.79346885       9.92649970      -0.16342580       0.07171011      -0.01645665       0.41540460      -0.17890214       0.10961099
F       -2.57068261     -10.31491234       7.85674159      -0.10918831      -0.09502999      -0.71040339      -2.16234051      -0.89306811      -0.44355049
Cl       1.05722165     -10.57155602       7.31319575      -0.30234626      -1.45991788       0.63948437       0.02258346       0.01144402       0.03221807
H       -1.21035512      -8.92082529       7.58077306      -0.13902539      -0.25322854       0.17066578       0.06375477       0.01769274       0.11991349
H       -0.62532418     -10.52256094       7.64305521       0.17085311      -0.04230929      -0.11667565       1.77511050      -2.00179307      -1.57314827