9
Properties=species:S:1:pos:R:3:momenta:R:3:forces:R:3 R1=H R2=H R3=CH3 R4=CH3 leaving_group=Cl nucleophile=Cl rxn=sn2 config=rcc label=H_H_CH3_CH3_Cl_Cl_sn2_rcc conformation=0 reactant_id=H_H_CH3_CH3_Cl_none_-_r product_id=H_H_CH3_CH3_none_Cl_sn2_pc mp2_author_energy=-29302.391748605172 mp2_my_energy=0 hash=59123 address=T id=71 energy=-17370.412368016237 pbc="F F F"
C        0.12542541       0.11270554      -0.00029240      -0.40034278       0.10636712       0.06374017      -0.09214561       1.11788396      -0.00082481
C        1.62503867       0.00847468       0.00156754       0.22050264      -0.01344628       0.15928998      -0.06338950      -0.85342640       0.00215309
H        1.99473018      -0.50605055       0.89354482       0.03253806       0.04222487      -0.06443895       0.00320508       0.00300841       0.00517082
F        0.89788639       2.64149152      -0.00442372      -0.05844971      -0.85177841       0.04763057      -0.23271315      -0.10403772      -0.00076135
Cl      -0.69504884      -1.53494042       0.00509220       0.74975246      -0.88298506       0.53461050       0.38207948      -0.16174994      -0.00050876
H       -0.22306082       0.64592326      -0.87549887       0.22372501       0.18171842      -0.06586229      -0.00302890      -0.00293595      -0.00472561
H       -0.22431889       0.65275656       0.87018381      -0.08592265      -0.23326810       0.14909024      -0.00396382      -0.00350204       0.00469305
H        1.88822962       1.08069343      -0.00059746       0.20221297      -0.03528847      -0.08528210       0.00778691       0.00253743      -0.00033365
H        1.99700981      -0.51031959      -0.88698835       0.09161303      -0.03547639      -0.08435889       0.00216950       0.00222225      -0.00486279
9
Properties=species:S:1:pos:R:3:momenta:R:3:forces:R:3 R1=H R2=H R3=CH3 R4=CH3 leaving_group=Cl nucleophile=Cl rxn=sn2 config=rcc label=H_H_CH3_CH3_Cl_Cl_sn2_rcc conformation=0 reactant_id=H_H_CH3_CH3_Cl_none_-_r product_id=H_H_CH3_CH3_none_Cl_sn2_pc mp2_author_energy=-29302.391748605172 mp2_my_energy=0 hash=59123 address=T id=71 energy=-17370.243486042582 pbc="F F F"
C        0.75125987      -0.94806961       0.46682743       0.55345958      -0.76671816      -0.10894828       0.59931732      -1.02465617      -0.69909741
C        2.19242651      -0.86269684      -0.00789999       0.61397991       0.59369710      -0.10916875       0.46752772      -0.49118165       1.32551544
H        2.82669967      -1.35727673       0.75806161       0.07424045       0.04254611      -0.00434610      -0.17538564       0.22145929      -0.37410590
F        0.82476578       1.66722059       0.27849158       0.20508314      -0.91101018       0.02220140       0.11810693       0.45451100       0.02296282
Cl       0.30171020      -2.77441952       0.64421429       0.42299005      -2.22788596       1.15291445       0.59521275       0.50754826       0.38901992
H        0.03399600      -0.67438568      -0.27502340       0.01506246      -0.07632045      -0.07813807      -0.14460568       0.88587781      -0.05339931
H        0.70914815      -0.37660962       1.38824279       0.25320965      -0.07182042       0.13353818      -0.67433359      -0.29146443      -0.00814664
H        2.44344417       0.19830886      -0.03152033      -0.16705668       0.04012693       0.25156114      -0.46524750       0.12600727       0.03110052
H        2.43851187      -1.31314642      -0.95043935      -0.12260867       0.11513009      -0.01979616      -0.32059231      -0.38810139      -0.63384945
9
Properties=species:S:1:pos:R:3:momenta:R:3:forces:R:3 R1=H R2=H R3=CH3 R4=CH3 leaving_group=Cl nucleophile=Cl rxn=sn2 config=rcc label=H_H_CH3_CH3_Cl_Cl_sn2_rcc conformation=0 reactant_id=H_H_CH3_CH3_Cl_none_-_r product_id=H_H_CH3_CH3_none_Cl_sn2_pc mp2_author_energy=-29302.391748605172 mp2_my_energy=0 hash=59123 address=T id=71 energy=-17370.29334462568 pbc="F F F"
C        1.30079870      -2.09891532       0.98478111       1.21648697      -0.29106442       0.55569388      -0.05126469      -0.12021378      -0.85138695
C        2.54074353      -1.86695542       0.13347541       0.44924642       0.13363474      -0.63995853      -1.66495363       0.06591104      -0.01719947
H        3.39936827      -2.18621658       0.66747154      -0.07686347      -0.11041970       0.12968697       1.03653995      -0.44775092       0.28592596
F        0.83064368       0.46126602       0.55806764      -0.08445540      -1.34737557       0.32042833       0.10847592      -0.19867373       0.04029508
Cl       1.45654839      -3.90431723       1.24323873       1.00180996      -2.42230532       0.97847787      -0.47265239      -0.57905471       0.40869951
H        0.37685378      -1.87658211       0.41969423      -0.18871961      -0.27771010       0.08119175       0.65154066      -0.05749981       0.62070254
H        1.29358310      -1.61784563       1.96477939      -0.00417050       0.34914595       0.01152649       0.05285548       0.03275727      -0.49098852
H        2.52726883      -0.81387562       0.00839179      -0.24031762      -0.09183507       0.03488683       0.03731025       1.20611158      -0.32317246
H        2.40815707      -2.38402406      -0.82848082       0.25497436      -0.05084853       0.08960477       0.30214844       0.09841305       0.32712432
9
Properties=species:S:1:pos:R:3:momenta:R:3:forces:R:3 R1=H R2=H R3=CH3 R4=CH3 leaving_group=Cl nucleophile=Cl rxn=sn2 config=rcc label=H_H_CH3_CH3_Cl_Cl_sn2_rcc conformation=0 reactant_id=H_H_CH3_CH3_Cl_none_-_r product_id=H_H_CH3_CH3_none_Cl_sn2_pc mp2_author_energy=-29302.391748605172 mp2_my_energy=0 hash=59123 address=T id=71 energy=-17370.278849340953 pbc="F F F"
C        1.84362450      -2.99307281       1.29894415       0.30290342      -0.94927024       0.33466746      -0.54685089       0.57559349       1.31384384
C        2.82922145      -2.63374354       0.23779471       0.11710424      -1.90446667       0.74782015      -0.83096219       0.28424884      -1.24529421
H        3.88901521      -2.67012005       0.50556906      -0.08527553      -0.09825546       0.13337529      -0.23791866       0.35898656       0.39361937
F        0.84061530      -0.71978030       0.85406987      -0.23596631      -0.38885777       0.25935104       0.01244123       0.03416506      -0.07684010
Cl       2.32565838      -4.71725675       1.72708897       2.25118667      -0.18882826      -0.16568367      -0.30311435      -0.58112187       0.23892955
H        0.79249040      -2.85946621       0.95550783      -0.11191736      -0.17367872       0.11257770       1.03407377      -0.49464800       0.22052741
H        1.92221053      -2.43624252       2.25382770      -0.13134539       0.12002108      -0.05695960       0.05984466      -0.14682277      -0.94799470
H        2.40718178      -1.65312255      -0.10237848       0.12048850       0.02056190       0.11027474       0.73902882      -0.41377019       0.28656188
H        2.70884417      -3.40519672      -0.53979697      -0.09024655      -0.20879436      -0.04204101       0.07345761       0.38336889      -0.18335303
9
Properties=species:S:1:pos:R:3:momenta:R:3:forces:R:3 R1=H R2=H R3=CH3 R4=CH3 leaving_group=Cl nucleophile=Cl rxn=sn2 config=rcc label=H_H_CH3_CH3_Cl_Cl_sn2_rcc conformation=0 reactant_id=H_H_CH3_CH3_Cl_none_-_r product_id=H_H_CH3_CH3_none_Cl_sn2_pc mp2_author_energy=-29302.391748605172 mp2_my_energy=0 hash=59123 address=T id=71 energy=-17370.183676189976 pbc="F F F"
C        2.49901593      -4.29089918       1.61220178       0.04759916      -1.12139561       0.95296425      -0.50990427       0.82181252       2.30941349
C        3.09585845      -3.82406449       0.33173448       0.91524077      -0.70349219       0.14147116       1.16035834      -0.25353800       0.90842989
H        4.11539423      -3.45002408       0.41077635       0.13148782      -0.02128232      -0.07346584       0.20402713      -0.23544962       0.04467737
F        0.96566267      -2.43880690       1.35016734      -0.16565450      -1.02816505       0.40431124       0.06438135      -0.21625934      -0.07071176
Cl       3.55006018      -5.69565807       2.40825537       1.50588799      -0.69454942       0.04350404      -0.25821932       0.25329623      -1.08619666
H        1.50929824      -4.67285712       1.38244095      -0.10502629       0.18039833      -0.01498848       0.06553392      -0.17996819       0.51694550
H        2.46886414      -3.59842176       2.48882290      -0.02543049      -0.05691452       0.01512143      -0.13777643      -0.36604419      -1.60101659
H        2.45635996      -3.01942832       0.07051566      -0.20771680      -0.16980649      -0.12671912      -0.86345121       0.83226684      -0.17348888
H        3.00515659      -4.61609659      -0.37283233       0.06997668      -0.20830824       0.11092584       0.27505049      -0.65611624      -0.84805236
9
Properties=species:S:1:pos:R:3:momenta:R:3:forces:R:3 R1=H R2=H R3=CH3 R4=CH3 leaving_group=Cl nucleophile=Cl rxn=sn2 config=rcc label=H_H_CH3_CH3_Cl_Cl_sn2_rcc conformation=0 reactant_id=H_H_CH3_CH3_Cl_none_-_r product_id=H_H_CH3_CH3_none_Cl_sn2_pc mp2_author_energy=-29302.391748605172 mp2_my_energy=0 hash=59123 address=T id=71 energy=-17370.187920295928 pbc="F F F"
C        3.14420084      -5.24280853       2.14143111       0.52975613      -0.15260993      -0.49710596      -0.17408097       0.71834404       0.65349218
C        3.40849611      -4.99041128       0.66351345       0.11023446      -0.60837889       0.29223971       0.19863976      -0.16607300       1.73141154
H        4.33428220      -4.46736646       0.46714746       0.03254273       0.01787028      -0.08385786       0.25041024       0.15749522       0.00116097
F        1.13255798      -4.16694259       1.72215161      -0.38867214      -1.07202021       0.36109646       0.50038580      -0.14991632       0.25684230
Cl       4.50965505      -6.42261810       2.81382189       0.97268865      -0.95651061       0.74312879       0.22560417       0.45703191      -0.31789980
H        2.28899608      -5.85468115       2.32870875       0.09836572       0.17891277      -0.01864694      -0.40023832       0.28297393      -0.06917466
H        3.18703249      -4.33219463       2.80000741       0.13664164      -0.12028485       0.23190511      -0.11016632      -1.19545416      -0.93658744
H        2.51094082      -4.41633539       0.54092954       0.08381866      -0.02217433       0.01675214      -0.55694156       0.70690406      -0.70054280
H        3.35619134      -5.91228272       0.13507566      -0.00610670      -0.03447914       0.00710166       0.06638720      -0.81130568      -0.61870229
9
Properties=species:S:1:pos:R:3:momenta:R:3:forces:R:3 R1=H R2=H R3=CH3 R4=CH3 leaving_group=Cl nucleophile=Cl rxn=sn2 config=rcc label=H_H_CH3_CH3_Cl_Cl_sn2_rcc conformation=0 reactant_id=H_H_CH3_CH3_Cl_none_-_r product_id=H_H_CH3_CH3_none_Cl_sn2_pc mp2_author_energy=-29302.391748605172 mp2_my_energy=0 hash=59123 address=T id=71 energy=-17370.063361434582 pbc="F F F"
C        3.54537761      -6.28017615       2.52630082       0.20809355      -1.97702518      -0.33711037       0.98094716       1.47709895      -0.63969008
C        3.74686469      -6.15520423       1.04814313      -0.24293583      -0.58556337      -0.14230479       0.88189540       0.14279279       0.02963132
H        4.27775817      -5.25198976       0.76843526       0.03696697       0.16331693       0.16723355       0.36492187       0.06864352       0.07822242
F        1.46530365      -5.69255329       2.16929757       0.65590790      -0.88130631       0.68452450      -0.43442791       0.17792043       0.06930567
Cl       5.30707427      -6.94806587       3.12763276       1.11363945      -0.29009342       0.82757474      -0.55919836       0.58490965       0.01690299
H        2.91958596      -7.06832419       2.76002769       0.02651109       0.07417161       0.04578946      -0.96305068      -1.12698162       0.77638430
H        3.23872744      -5.30026958       2.92440717       0.10902841       0.02516192       0.09869757       0.59183291      -0.91530622       0.47842976
H        2.77830727      -6.08002684       0.66046370       0.02653895      -0.29340391      -0.07349491      -1.51432042       0.20400428      -0.48694024
H        4.21497625      -7.01886242       0.62929639       0.18014375       0.03383304       0.14701962       0.65140004      -0.61308178      -0.32224617
9
Properties=species:S:1:pos:R:3:momenta:R:3:forces:R:3 R1=H R2=H R3=CH3 R4=CH3 leaving_group=Cl nucleophile=Cl rxn=sn2 config=rcc label=H_H_CH3_CH3_Cl_Cl_sn2_rcc conformation=0 reactant_id=H_H_CH3_CH3_Cl_none_-_r product_id=H_H_CH3_CH3_none_Cl_sn2_pc mp2_author_energy=-29302.391748605172 mp2_my_energy=0 hash=59123 address=T id=71 energy=-17369.911552789497 pbc="F F F"
C        4.12960376      -7.60979531       2.98710760       0.26191543      -1.48295803       0.43722655      -0.16820566       2.19686961      -0.94937163
C        4.20676128      -7.62183401       1.46475754       0.09451267      -1.53836785      -0.04629961       0.90736148       1.76166627       0.51408629
H        4.10809141      -6.59959269       1.09435729       0.06507771       0.12714697       0.18138436      -0.39779838       0.18127015       0.09894976
F        2.04347041      -7.63278126       2.77791829       0.05772738      -1.51141213       0.47918937       1.66837441      -0.06909361       0.22420214
Cl       6.12882356      -7.52959650       3.48769884       2.38515892      -0.63313967       1.01714719      -0.17891500       0.13063587      -0.14169885
H        4.02914124      -8.54136279       3.41103257      -0.01216424      -0.08376967       0.00256791      -0.81542123      -1.58612740       1.11564812
H        3.83476360      -6.69421758       3.53975676      -0.08473999       0.07268579      -0.02577722       0.11865859      -1.13111766      -0.75938579
H        3.34373780      -8.15767896       1.20382053      -0.17640501       0.01685270       0.01452713      -0.98387978      -0.81145851      -0.78822136
H        5.13880404      -7.92416234       0.97340289       0.16944867       0.16077346      -0.20829371      -0.15017442      -0.67264471       0.68579131
9
Properties=species:S:1:pos:R:3:momenta:R:3:forces:R:3 R1=H R2=H R3=CH3 R4=CH3 leaving_group=Cl nucleophile=Cl rxn=sn2 config=rcc label=H_H_CH3_CH3_Cl_Cl_sn2_rcc conformation=0 reactant_id=H_H_CH3_CH3_Cl_none_-_r product_id=H_H_CH3_CH3_none_Cl_sn2_pc mp2_author_energy=-29302.391748605172 mp2_my_energy=0 hash=59123 address=T id=71 energy=-17369.9159378309 pbc="F F F"
C        4.86901187      -9.16725486       3.56430007       0.71514344      -0.40472652       1.43414661       0.36425107       1.25908691       0.54249257
C        4.84893000      -9.23585941       2.08061494       0.04716265      -1.41749249      -0.08054224       0.25150836       2.25211476      -0.26019476
H        5.80196382      -9.09471808       1.61627194       0.03512616       0.18010755      -0.02749996       0.65706012       0.74031235      -0.25695850
F        3.12751609      -9.96022879       3.54141244       1.17688620      -1.45716059       0.14100018      -1.28708724      -0.45375342       0.06221764
Cl       6.80603525      -8.19498468       3.81156928       0.63681732      -1.07059603       0.13894526      -0.32435847      -0.30206340       0.05177453
H        5.07063506     -10.07787967       4.06823304       0.07290772      -0.26843098       0.22849540       0.52503659      -0.13047157       0.81693321
H        4.36359805      -8.33098119       4.09162573      -0.15483447      -0.19539780      -0.09341662       0.64061386      -0.97985839      -0.45327297
H        4.11718172      -8.46438088       1.76790253       0.12654613       0.14973932      -0.03208765       0.38350155      -0.56143516      -0.27354688
H        4.57428579     -10.17203118       1.73458167      -0.11750801       0.00408905      -0.00646992      -1.21052584      -1.82393208      -0.22944484
9
Properties=species:S:1:pos:R:3:momenta:R:3:forces:R:3 R1=H R2=H R3=CH3 R4=CH3 leaving_group=Cl nucleophile=Cl rxn=sn2 config=rcc label=H_H_CH3_CH3_Cl_Cl_sn2_rcc conformation=0 reactant_id=H_H_CH3_CH3_Cl_none_-_r product_id=H_H_CH3_CH3_none_Cl_sn2_pc mp2_author_energy=-29302.391748605172 mp2_my_energy=0 hash=59123 address=T id=71 energy=-17370.089024373912 pbc="F F F"
C        5.69390601     -10.64443248       4.14083451      -0.03526950      -0.99247400       0.45234324       0.60629199      -0.79715646      -0.84320070
C        5.56818442     -10.67338098       2.59684894       0.01384543      -0.96567616       0.56821073      -0.51554684       1.73297943       1.41465843
H        6.51074906     -10.51714435       2.10888623       0.09547264       0.16092128       0.09903750       0.42313037      -0.50816729      -0.32486332
F        4.38317723     -11.87008048       4.31492997       1.11657986      -1.29915855       0.47921015      -0.13661002       0.10612265       0.28369477
Cl       7.17202915      -8.95256057       4.07264937       0.79953344      -0.78645187       0.21962577       0.24405424       0.00445655       0.18031394
H        6.37362510     -11.32942128       4.66895729      -0.11889553       0.01606695      -0.04153131      -0.23311519       0.75829651      -0.70289174
H        5.26500720      -9.88212067       4.73378180       0.15822209       0.06034816       0.14520659      -0.61102632       0.11697717       0.17698190
H        4.93240556      -9.82572643       2.26231743      -0.02554467      -0.03013902      -0.29639963       0.30935860      -0.34458754       0.41446430
H        5.02685081     -11.55644952       2.37736011       0.13629017       0.05916642      -0.19010589      -0.08653683      -1.06892102      -0.59915759
9
Properties=species:S:1:pos:R:3:momenta:R:3:forces:R:3 R1=H R2=H R3=CH3 R4=CH3 leaving_group=Cl nucleophile=Cl rxn=sn2 config=rcc label=H_H_CH3_CH3_Cl_Cl_sn2_rcc conformation=0 reactant_id=H_H_CH3_CH3_Cl_none_-_r product_id=H_H_CH3_CH3_none_Cl_sn2_pc mp2_author_energy=-29302.391748605172 mp2_my_energy=0 hash=59123 address=T id=71 energy=-17370.262230450302 pbc="F F F"
C        6.43091833     -11.98876788       4.64775778       0.44343087      -0.61336645      -0.26916407      -0.84137824      -0.04070580      -1.18990868
C        6.18001154     -12.08780187       3.12646425       0.58477161      -1.08773509       0.85545941       0.96659582       1.99025084       0.51805416
H        7.14946344     -11.86222957       2.66001212       0.00830687      -0.31893677      -0.10999393      -0.46859992       0.19102039      -0.22011894
F        5.80466453     -13.49670535       5.03104891       1.47558317      -0.31247076       0.28824782       0.21275152       0.18027517       0.18542288
Cl       7.45097257      -9.78400033       4.34198445      -0.06458607      -1.79978787       0.59129357      -0.32710140      -0.40742146       0.10880925
H        7.42732735     -12.03949336       5.01357863       0.21527654      -0.43783479       0.16728121       0.22725131      -0.36749941       0.23283537
H        5.73813779     -11.37575791       5.19639799      -0.01676952      -0.19075979      -0.13908793       0.19812035      -0.01572866       0.19216703
H        5.44952131     -11.25421167       2.88576341      -0.14321591      -0.01170480       0.34940759       0.69869817      -1.32062745      -0.24100772
H        5.91995957     -13.08598819       2.80569850       0.14021223       0.10782743       0.03939865      -0.66633760      -0.20956362       0.41374664
9
Properties=species:S:1:pos:R:3:momenta:R:3:forces:R:3 R1=H R2=H R3=CH3 R4=CH3 leaving_group=Cl nucleophile=Cl rxn=sn2 config=rcc label=H_H_CH3_CH3_Cl_Cl_sn2_rcc conformation=0 reactant_id=H_H_CH3_CH3_Cl_none_-_r product_id=H_H_CH3_CH3_none_Cl_sn2_pc mp2_author_energy=-29302.391748605172 mp2_my_energy=0 hash=59123 address=T id=71 energy=-17370.2352466146 pbc="F F F"
C        7.25991344     -13.08431371       5.07684399       0.05471124      -1.29587208      -0.37366970       1.01879130       0.76465156       1.97677387
C        6.88649452     -13.32868346       3.69933079       0.57575663      -0.85988233       0.39818875      -2.05092833      -0.67956043      -2.81680540
H        7.59216487     -12.94302576       2.94485892      -0.02983247       0.02986404       0.20972066      -0.26874190      -0.29376097       0.44412823
F        7.23379591     -14.67250414       5.61530370       1.71608860      -0.84982490       0.83228945       0.23037799       0.02786535       0.13402523
Cl       7.56590659     -10.82701734       4.62215560       0.30333011      -1.59356128       0.37254105       0.07439011       0.40418591       0.11512006
H        8.28339835     -12.73246577       5.25036659      -0.12282208      -0.31603224       0.05440615      -0.76742878      -0.50110335       0.38440859
H        6.49503500     -12.71638091       5.76834815       0.10764874      -0.21510922       0.16130079       0.56573538      -0.14244311      -0.35019069
H        5.90220765     -12.85724051       3.49814329      -0.00385507       0.14037304      -0.03459740       0.59371327       0.11026041      -0.06528746
H        6.66927094     -14.40159473       3.53225617       0.12694177       0.14533035       0.20964934       0.60409094       0.30990462       0.17782757
9
Properties=species:S:1:pos:R:3:momenta:R:3:forces:R:3 R1=H R2=H R3=CH3 R4=CH3 leaving_group=Cl nucleophile=Cl rxn=sn2 config=rcc label=H_H_CH3_CH3_Cl_Cl_sn2_rcc conformation=0 reactant_id=H_H_CH3_CH3_Cl_none_-_r product_id=H_H_CH3_CH3_none_Cl_sn2_pc mp2_author_energy=-29302.391748605172 mp2_my_energy=0 hash=59123 address=T id=71 energy=-17370.489050955304 pbc="F F F"
C        8.49118261     -14.32921263       5.19024643       0.07257978      -0.64074528      -0.05616406       0.00636392       1.77163007       1.08868586
C        7.62111102     -14.94895177       4.18802491       0.42783589      -0.88867409       0.34242578       0.21830337       0.50911375      -0.76591705
H        7.42397538     -14.19554026       3.41341209       0.18101293      -0.05084806      -0.02068048       0.07619746      -0.40153728       0.01018484
F        8.68644595     -15.46164069       6.35256832       0.57694480       1.06831879      -0.03160488       0.19252969      -0.70449195       0.17087132
Cl       7.72007936     -12.30124063       5.14559566       0.62043171      -2.57507640       1.37361598       0.02343734       0.27586572       0.01053725
H        9.48874558     -14.07909711       4.89218310       0.17954773      -0.08144904      -0.09039041       0.31745144      -0.24959782      -0.28989496
H        8.12417383     -13.59156525       5.86605297      -0.06973212       0.08384763      -0.14664208      -0.25010388      -0.02832664       0.05493575
H        6.67802548     -15.25256541       4.61290141      -0.00553292      -0.33022258       0.06386776      -0.22954843      -0.39452665       0.13765516
H        8.23333982     -15.74305506       3.80309997      -0.09689852       0.08582725      -0.16923510      -0.35463090      -0.77812920      -0.41705817
9
Properties=species:S:1:pos:R:3:momenta:R:3:forces:R:3 R1=H R2=H R3=CH3 R4=CH3 leaving_group=Cl nucleophile=Cl rxn=sn2 config=rcc label=H_H_CH3_CH3_Cl_Cl_sn2_rcc conformation=0 reactant_id=H_H_CH3_CH3_Cl_none_-_r product_id=H_H_CH3_CH3_none_Cl_sn2_pc mp2_author_energy=-29302.391748605172 mp2_my_energy=0 hash=59123 address=T id=71 energy=-17370.45787436296 pbc="F F F"
C        9.02016884     -15.01080869       5.44469681       0.15355207      -0.15737320      -0.07105374       0.32708997      -1.22471043      -0.02043623
C        8.21383760     -16.08507857       4.68614391       0.53810192      -0.98308233       0.23196458       0.75741884       1.49038652       0.79589242
H        7.64770453     -15.53757143       3.94419642       0.11243502      -0.16268883       0.11658071      -0.27498389      -0.33244172      -0.33697421
F        9.76507220     -15.92948878       6.61461839       0.72978676      -0.59425249      -0.08665354      -0.09340157       0.41480014      -0.57371937
Cl       7.82967266     -13.29891579       5.45429773       0.17771889      -1.34264586       0.70777114      -0.50079673       0.09034971      -0.11577076
H        9.80870080     -14.48372257       4.92318609      -0.10787569       0.10620915       0.03591531       0.23475019      -0.89054921      -0.12227742
H        8.49089436     -14.40237581       6.12304173       0.03690915       0.00138898       0.01267886      -0.36100145       0.25819445       0.56596466
H        7.57892387     -16.60823864       5.38955626      -0.01173287       0.21583322      -0.02435837      -0.43773829       0.04890978       0.15215780
H        8.86161580     -16.84481011       4.26814446       0.12114123      -0.17210809       0.25102081       0.34866292       0.14506077      -0.34483691
9
Properties=species:S:1:pos:R:3:momenta:R:3:forces:R:3 R1=H R2=H R3=CH3 R4=CH3 leaving_group=Cl nucleophile=Cl rxn=sn2 config=rcc label=H_H_CH3_CH3_Cl_Cl_sn2_rcc conformation=0 reactant_id=H_H_CH3_CH3_Cl_none_-_r product_id=H_H_CH3_CH3_none_Cl_sn2_pc mp2_author_energy=-29302.391748605172 mp2_my_energy=0 hash=59123 address=T id=71 energy=-17370.447380883674 pbc="F F F"
C        9.64026716     -15.81782076       5.84078654       0.24560499      -1.08934199      -0.02786013       0.12092437      -0.53355101      -0.31882437
C        8.94464444     -17.12817120       5.42237544       0.49678598      -0.27429592       0.69402812      -0.54882605       1.28010142       0.37688978
H        8.90079762     -17.27712310       4.35751339       0.34962652       0.02317498       0.08215050      -0.03537039       0.46921269      -0.64045788
F       10.90323256     -16.45497655       6.73323605       1.52267895      -0.93462108       0.09935226      -0.45841022       0.39945007      -0.23128075
Cl       7.95036619     -14.52131075       5.78856096      -0.38371826      -1.71742858       0.27839928      -0.12595758       0.19215741      -0.13766473
H       10.20254809     -15.36369834       5.04326320      -0.20689791       0.09714747       0.14151312      -0.00304479       0.13208686       0.10310295
H        9.23897662     -15.09556633       6.53924483       0.08166140      -0.12914384      -0.00056586       0.14366173      -0.64002037      -0.06317782
H        7.91660733     -17.19483838       5.79670982       0.04680216       0.08918439       0.08655842       0.45406607      -0.06283272       0.15151989
H        9.59032390     -17.87799447       5.78304599       0.00246646       0.13184835       0.09193289       0.45295685      -1.23660434       0.75989294
9
Properties=species:S:1:pos:R:3:momenta:R:3:forces:R:3 R1=H R2=H R3=CH3 R4=CH3 leaving_group=Cl nucleophile=Cl rxn=sn2 config=rcc label=H_H_CH3_CH3_Cl_Cl_sn2_rcc conformation=0 reactant_id=H_H_CH3_CH3_Cl_none_-_r product_id=H_H_CH3_CH3_none_Cl_sn2_pc mp2_author_energy=-29302.391748605172 mp2_my_energy=0 hash=59123 address=T id=71 energy=-17370.411633099444 pbc="F F F"
C       10.34640212     -16.84353396       6.26117684       1.02659346      -0.51790233       0.47152037      -0.51438862       1.20501508      -1.16218924
C       10.01754596     -18.25548113       6.38275790      -0.90570826      -0.54752582       0.49045417      -0.07994801      -1.96425292      -0.19341257
H        9.62907745     -18.35747146       7.35832411       0.14427420       0.23347109      -0.03451826      -0.50285159      -0.42381456       1.19731727
F       11.96401100     -16.97004763       6.58295450       1.62315980      -0.24387864      -0.18488928       0.79868954       0.32375144       0.64971464
Cl       8.21283175     -16.09860700       6.32898367      -0.12555691      -2.89989819       0.82420413       0.25613553      -0.00316279       0.08853016
H       10.47543648     -16.47571744       5.26134618       0.24078713       0.04741912      -0.03051961      -0.29566517       0.33313219      -0.05400915
H        9.82140437     -16.15883252       6.93634657       0.09648979      -0.12424120      -0.12563194       0.40654437      -0.09526481      -0.24459825
H       10.92641563     -18.86410325       6.32459148       0.10718873      -0.00764722       0.30509925      -0.03783258       0.22113022      -0.11715340
H        9.26461856     -18.64370867       5.69694564       0.13048597      -0.06573503      -0.14765874      -0.03068348       0.40346615      -0.16419947
9
Properties=species:S:1:pos:R:3:momenta:R:3:forces:R:3 R1=H R2=H R3=CH3 R4=CH3 leaving_group=Cl nucleophile=Cl rxn=sn2 config=rcc label=H_H_CH3_CH3_Cl_Cl_sn2_rcc conformation=0 reactant_id=H_H_CH3_CH3_Cl_none_-_r product_id=H_H_CH3_CH3_none_Cl_sn2_pc mp2_author_energy=-29302.391748605172 mp2_my_energy=0 hash=59123 address=T id=71 energy=-17370.304985484283 pbc="F F F"
C       10.97984261     -17.88269607       6.51496888      -0.27562054      -0.88143353      -0.49415444       2.20258162      -0.37813993      -0.12027381
C       11.07881969     -19.16362463       7.31308608       0.79241831      -0.73227595       0.93415806      -0.64792379       0.61142746       0.22246120
H       10.93989552     -18.92263925       8.37603499      -0.15495014      -0.16202876       0.19455188      -0.48078370      -0.16038218      -0.31870360
F       12.64269634     -17.42614461       6.59801296      -0.27498309      -0.06148653       0.21808211      -3.01305185      -0.62409618      -0.03526744
Cl       8.70512838     -17.80155997       6.86716961       2.85812554      -2.78842390       0.96694961       0.66872311       0.28898064      -0.27243432
H       10.90712391     -17.95105112       5.41995531      -0.13145955      -0.17257137      -0.02489822      -0.15255858       0.08076928       1.01251015
H       10.33331858     -17.15978182       6.98112365      -0.02653739       0.09943428      -0.04961553      -0.13146546       0.54771406      -0.24067350