9
Properties=species:S:1:pos:R:3:momenta:R:3:forces:R:3 R1=H R2=H R3=CH3 R4=CH3 leaving_group=Cl nucleophile=Cl rxn=sn2 config=rcc label=H_H_CH3_CH3_Cl_Cl_sn2_rcc conformation=0 reactant_id=H_H_CH3_CH3_Cl_none_-_r product_id=H_H_CH3_CH3_none_Cl_sn2_pc mp2_author_energy=-29302.391748605172 mp2_my_energy=0 hash=59123 address=T id=71 energy=-17370.412368016237 pbc="F F F"
C        0.12542541       0.11270554      -0.00029240      -0.89651154      -0.46691292      -0.57483339      -0.09214561       1.11788396      -0.00082481
C        1.62503867       0.00847468       0.00156754       0.75941229       0.76737661      -0.57257888      -0.06338950      -0.85342640       0.00215309
H        1.99473018      -0.50605055       0.89354482      -0.27944448      -0.00698184       0.07157386       0.00320508       0.00300841       0.00517082
F        0.89788639       2.64149152      -0.00442372      -0.27102126       0.34350317       0.34826905      -0.23271315      -0.10403772      -0.00076135
Cl      -0.69504884      -1.53494042       0.00509220       0.09617437      -0.94569908       0.85382495       0.38207948      -0.16174994      -0.00050876
H       -0.22306082       0.64592326      -0.87549887       0.19844311       0.07976465      -0.01616214      -0.00302890      -0.00293595      -0.00472561
H       -0.22431889       0.65275656       0.87018381      -0.25117024       0.06281522      -0.12958721      -0.00396382      -0.00350204       0.00469305
H        1.88822962       1.08069343      -0.00059746       0.19755804      -0.10754434       0.15148316       0.00778691       0.00253743      -0.00033365
H        1.99700981      -0.51031959      -0.88698835      -0.13813724      -0.08127899      -0.00621809       0.00216950       0.00222225      -0.00486279
9
Properties=species:S:1:pos:R:3:momenta:R:3:forces:R:3 R1=H R2=H R3=CH3 R4=CH3 leaving_group=Cl nucleophile=Cl rxn=sn2 config=rcc label=H_H_CH3_CH3_Cl_Cl_sn2_rcc conformation=0 reactant_id=H_H_CH3_CH3_Cl_none_-_r product_id=H_H_CH3_CH3_none_Cl_sn2_pc mp2_author_energy=-29302.391748605172 mp2_my_energy=0 hash=59123 address=T id=71 energy=-17370.24100943688 pbc="F F F"
C       -0.18717509      -0.10631278      -0.05115595      -0.46712629       0.05129172      -0.44060393      -0.01010046       0.36332777      -1.08106748
C        1.30030555       0.15219016      -0.21003405       0.41469094       1.69474934       0.65824701      -0.55412972       0.18775284      -0.06982312
H        1.91299775       0.02318510       0.68111324       0.38901771       0.06043115      -0.24668548      -0.16467986      -0.74254142       0.12493655
F       -0.49866939       2.51555764      -0.04729767      -0.85590748      -1.40797627      -0.13981329       0.24509014      -0.28475699      -0.13826176
Cl      -0.39886377      -1.88432989       0.30446959      -0.37270750      -0.97987388       0.39156295      -0.00369813      -0.44495126       0.30629999
H       -0.75709467       0.03436719      -0.98738742      -0.37025531      -0.26973132       0.11931867       0.75912367       0.19446402       0.53059674
H       -0.64649116       0.58775142       0.63149219       0.04370326       0.07167303       0.14457256      -0.04603008      -0.11528114       0.61074078
H        1.34448816       1.20173901      -0.36677986       0.06220005       0.12444431      -0.25175038      -0.40734595       1.24583227      -0.40417223
H        1.71040606      -0.32595828      -1.09421321      -0.05963788      -0.08323038       0.02672455       0.18177038      -0.40384610       0.12075052
9
Properties=species:S:1:pos:R:3:momenta:R:3:forces:R:3 R1=H R2=H R3=CH3 R4=CH3 leaving_group=Cl nucleophile=Cl rxn=sn2 config=rcc label=H_H_CH3_CH3_Cl_Cl_sn2_rcc conformation=0 reactant_id=H_H_CH3_CH3_Cl_none_-_r product_id=H_H_CH3_CH3_none_Cl_sn2_pc mp2_author_energy=-29302.391748605172 mp2_my_energy=0 hash=59123 address=T id=71 energy=-17370.1907341163 pbc="F F F"
C       -0.65535004      -0.32060531       0.16289260      -0.85211757      -0.35086682       1.34293804      -0.25280549      -1.15525198      -1.27750571
C        0.58547222       0.34853373      -0.28459457       0.25675840      -0.39452843      -0.56373102       1.53475838       1.24785809       0.33461266
H        1.38225411       0.32125692       0.47909530      -0.03005735      -0.17178216       0.01471474      -0.55263458       0.56679520       0.35012021
F       -1.65759381       2.08401455      -0.21370967      -1.20813974      -0.92905493      -0.13174469      -0.10632574       0.06232067       0.00008954
Cl       0.00537821      -2.07141161       0.49307620       0.51810187       0.57035208      -0.03484668      -0.75566362       0.49649481       0.30211723
H       -1.33853093      -0.40583294      -0.69489920       0.05282933       0.00898787      -0.13893341       0.12359250      -0.07947013       0.57001310
H       -1.21391167       0.14409568       0.96980318      -0.24273938       0.04012992      -0.04699643       0.46802494      -0.20714572       0.13191131
H        0.30469703       1.37567277      -0.60902354       0.19412146       0.36077925      -0.06305963       0.03960474      -0.56554095       0.43092094
H        1.12656618      -0.17996984      -1.05621574       0.15026646       0.16117822      -0.12860893      -0.49855114      -0.36605999      -0.84227928
9
Properties=species:S:1:pos:R:3:momenta:R:3:forces:R:3 R1=H R2=H R3=CH3 R4=CH3 leaving_group=Cl nucleophile=Cl rxn=sn2 config=rcc label=H_H_CH3_CH3_Cl_Cl_sn2_rcc conformation=0 reactant_id=H_H_CH3_CH3_Cl_none_-_r product_id=H_H_CH3_CH3_none_Cl_sn2_pc mp2_author_energy=-29302.391748605172 mp2_my_energy=0 hash=59123 address=T id=71 energy=-17370.171924380316 pbc="F F F"
C       -0.82666311      -0.47013913       0.24670935      -1.04734332       0.26620611       0.72461297      -1.29747364      -0.80858190       1.38302230
C        0.02415442       0.55950735      -0.45509543      -0.18997544      -0.36249797       0.10794327      -0.46495779      -0.65102893      -0.07734920
H        0.85725733       0.93795916       0.14721571      -0.00340316       0.03425965       0.06971290       0.10612925      -0.49975403      -0.19494682
F       -2.64539257       1.13672909      -0.22949015      -0.53211438      -0.56874693      -0.34585023      -0.47223458       0.37635375      -0.06648998
Cl       0.19290753      -1.98832697       0.67618564       0.92882844       0.54758901      -0.47018446       1.00440527      -0.29700233      -0.16676126
H       -1.65443674      -0.89293463      -0.30349272       0.01268323      -0.15468511      -0.04754086       0.25235269       0.57373636      -0.63033497
H       -1.28278237      -0.29172583       1.22885614       0.02463708      -0.02640332      -0.00363746       0.58762274       1.01038643      -0.63135821
H       -0.68563592       1.37923368      -0.63128362       0.21427199      -0.00389215       0.03015321      -0.12690020      -0.36038813      -0.03858878
H        0.30509989       0.07219441      -1.41257426      -0.27667146      -0.25943416       0.12173572       0.41105626       0.65627878       0.42280693
9
Properties=species:S:1:pos:R:3:momenta:R:3:forces:R:3 R1=H R2=H R3=CH3 R4=CH3 leaving_group=Cl nucleophile=Cl rxn=sn2 config=rcc label=H_H_CH3_CH3_Cl_Cl_sn2_rcc conformation=0 reactant_id=H_H_CH3_CH3_Cl_none_-_r product_id=H_H_CH3_CH3_none_Cl_sn2_pc mp2_author_energy=-29302.391748605172 mp2_my_energy=0 hash=59123 address=T id=71 energy=-17370.16137359379 pbc="F F F"
C       -1.18562213      -0.70308548       0.26583995       0.77295871      -0.24104652      -0.70332958      -0.83528892       0.09749411       0.34669484
C       -0.68089377       0.48184701      -0.51968930      -0.80274332       0.59869390      -0.58161297      -1.28207858       0.40207192       0.61957154
H       -0.09522881       1.17107413       0.08506428      -0.02239959       0.25480394       0.00508503       0.28360970      -0.09558697      -0.00118307
F       -3.27166781       0.26603821      -0.19008273      -1.08066403      -0.80590055       0.66847893       0.09113509      -0.20766584       0.13073687
Cl       0.37466537      -1.75958756       0.80354464      -0.27960055      -0.55101640       1.10095153       0.44480386      -0.23445246      -0.27173385
H       -1.86809031      -1.32140680      -0.29608988       0.39444307      -0.16506093      -0.01538710       0.28341611      -0.24118510      -0.10749523
H       -1.61147843      -0.57320240       1.26846279       0.00780320       0.14771197      -0.14751404       0.15320902       0.72090564      -0.83979709
H       -1.70819635       0.91729124      -0.69134446      -0.10716677      -0.05710180      -0.03525777       0.69403107      -0.11156678      -0.01789870
H       -0.21027812       0.25486193      -1.47381285       0.17333600       0.24581317      -0.08834765       0.16716264      -0.33001452       0.14110470
9
Properties=species:S:1:pos:R:3:momenta:R:3:forces:R:3 R1=H R2=H R3=CH3 R4=CH3 leaving_group=Cl nucleophile=Cl rxn=sn2 config=rcc label=H_H_CH3_CH3_Cl_Cl_sn2_rcc conformation=0 reactant_id=H_H_CH3_CH3_Cl_none_-_r product_id=H_H_CH3_CH3_none_Cl_sn2_pc mp2_author_energy=-29302.391748605172 mp2_my_energy=0 hash=59123 address=T id=71 energy=-17370.018437869567 pbc="F F F"
C       -1.68804818      -0.86863568       0.29030340      -0.41648409       0.67887355       0.56821589       0.43081296       1.10128598       0.66247659
C       -1.33512377       0.38880696      -0.54058974      -0.89135684      -0.68200226      -0.01510617      -0.73501194      -1.84400863      -0.88908139
H       -1.70158674       1.31839710      -0.16281288      -0.23790371      -0.04023261       0.13675535      -0.17338569       0.42723975       0.90951137
F       -3.79967922      -0.76263174      -0.08329237      -0.35028906      -0.52888922      -0.55029791      -0.03450022       0.12610618      -0.02965996
Cl       0.49961864      -1.46007944       0.87757488       1.27233962      -0.05324626       0.02830396       0.22318932      -0.04227763      -0.02375342
H       -1.79412808      -1.83768813      -0.15925390       0.03284838       0.17224290       0.17147271       0.01690087       0.26656715      -0.19078896
H       -1.81655933      -0.78238175       1.37194992      -0.16533156      -0.02953471      -0.07041336      -0.25116170       0.05784986      -0.84031726
H       -1.88850388       0.30665337      -1.50254655       0.02521881       0.11068201      -0.07151238       0.52206360      -0.19786161       0.47282349
H       -0.26771470       0.43977529      -0.72886050      -0.08756329      -0.12480114      -0.02134988       0.00109279       0.10509895      -0.07121046
9
Properties=species:S:1:pos:R:3:momenta:R:3:forces:R:3 R1=H R2=H R3=CH3 R4=CH3 leaving_group=Cl nucleophile=Cl rxn=sn2 config=rcc label=H_H_CH3_CH3_Cl_Cl_sn2_rcc conformation=0 reactant_id=H_H_CH3_CH3_Cl_none_-_r product_id=H_H_CH3_CH3_none_Cl_sn2_pc mp2_author_energy=-29302.391748605172 mp2_my_energy=0 hash=59123 address=T id=71 energy=-17370.091841918416 pbc="F F F"
C       -2.14421245      -1.34967991       0.46785271       0.29587726      -0.70685738      -0.62893330       0.82571894       0.00630837      -0.57506932
C       -2.16577562      -0.07972846      -0.42828960       0.38529564      -0.41631803      -0.20130349      -1.62010010      -1.00887463       2.69714193
H       -1.23661548       0.25820290      -0.78864854      -0.00622469       0.12087822      -0.08652871       1.20838269      -0.01267741      -0.62820674
F       -3.99205590      -1.86199728      -0.11785055      -0.33374219      -0.97058868       0.97834643       1.12056707       0.41829468       0.47179604
Cl       0.39430068      -0.92957311       0.92281781      -1.33062723       1.22287103       0.28534365      -0.16006615      -0.07707484       0.10642175
H       -1.64754180      -2.24858146       0.00422182       0.00423156       0.17018364      -0.38400996      -0.84000917       1.10246161       0.98940043
H       -2.11837026      -1.14618636       1.58804022      -0.19385812      -0.18484267       0.04562742      -0.13729726      -0.68859382      -1.89315660
H       -2.52553610       0.67285186       0.29084754      -0.02519905      -0.08667708       0.07412104      -0.12982962       0.14333343      -0.58277316
H       -2.93171961      -0.28761713      -1.15115755      -0.08896098       0.06627104       0.19551254      -0.26736640       0.11682261      -0.58555432
9
Properties=species:S:1:pos:R:3:momenta:R:3:forces:R:3 R1=H R2=H R3=CH3 R4=CH3 leaving_group=Cl nucleophile=Cl rxn=sn2 config=rcc label=H_H_CH3_CH3_Cl_Cl_sn2_rcc conformation=0 reactant_id=H_H_CH3_CH3_Cl_none_-_r product_id=H_H_CH3_CH3_none_Cl_sn2_pc mp2_author_energy=-29302.391748605172 mp2_my_energy=0 hash=59123 address=T id=71 energy=-17370.61440109174 pbc="F F F"
C       -2.33179157      -1.91816821       0.17129247       0.14605092      -0.24947642      -1.10051232       1.91284434       1.16248762       0.71249673
C       -3.10900039      -0.64582811      -0.14017874      -0.15516323       0.48312919       0.37044088       1.34156751       0.78510424       2.03520796
H       -3.74061252      -0.82853846      -0.98161154      -0.15465571      -0.34068551       0.19940209      -0.31402312      -0.08889765      -0.63401154
F       -3.68804881      -3.00698128       0.18710770       0.56920100      -0.98413706       0.59882065      -2.22095865      -1.57879047       0.03224271
Cl      -0.14895447      -0.37089244       0.94615754      -1.60608388       0.31154836       0.03860177      -0.20799686      -0.21678003      -0.18826241
H       -1.92211930      -2.42837476      -0.71219971       0.05007494      -0.12399612       0.14667163       0.41613582       0.46919598       0.74137921
H       -1.95605539      -2.20407766       1.20737687      -0.10788943       0.04690541      -0.02390018      -0.58013699       0.87799581      -1.86769541
H       -2.39139921       0.20462564      -0.28718240      -0.04105905       0.04574558      -0.04691622      -0.79918024      -0.93806261      -0.17334834
H       -3.74603209      -0.34470394       0.73369486       0.09178089       0.07777027       0.07718352       0.45174819      -0.47225288      -0.65800891
9
Properties=species:S:1:pos:R:3:momenta:R:3:forces:R:3 R1=H R2=H R3=CH3 R4=CH3 leaving_group=Cl nucleophile=Cl rxn=sn2 config=rcc label=H_H_CH3_CH3_Cl_Cl_sn2_rcc conformation=0 reactant_id=H_H_CH3_CH3_Cl_none_-_r product_id=H_H_CH3_CH3_none_Cl_sn2_pc mp2_author_energy=-29302.391748605172 mp2_my_energy=0 hash=59123 address=T id=71 energy=-17371.27317904342 pbc="F F F"
C       -2.51118374      -2.28699974       0.29859084       0.00027589      -0.11023422       0.65712372      -0.08641779       0.09943167       1.30012371
C       -3.73336408      -1.42821065       0.47605323      -0.27037735      -1.19428898       0.23919401      -0.04620325       0.50238150      -0.43163295
H       -4.46026845      -1.82580679       1.22464747      -0.03850102       0.02797902      -0.17564174       0.78586361       0.06296933      -0.59872301
F       -3.17052125      -3.77376362       0.20086413       0.25123141      -0.00433906      -0.36961482      -0.76736779      -0.73570517      -0.15761964
Cl      -0.88590054       0.02710324       0.80239175      -1.01932432       0.29830574      -0.78754370      -0.08649869      -0.23811546      -0.09214699
H       -1.95392602      -2.37346683      -0.60953578       0.02132004       0.23522203       0.45988938       0.09971508       0.81520789      -0.43998337
H       -1.93149582      -2.48200840       1.16834348       0.07656565       0.09382965       0.04841346       0.58893783       0.37714723       0.47084941
H       -4.16603650      -1.40615592      -0.50620577      -0.10178912       0.08915616      -0.07089592      -0.88249109      -0.28885962      -0.46654847
H       -3.53817808      -0.36008246       0.65023878      -0.00815381      -0.09658970       0.23327187       0.39446208      -0.59445736       0.41568131
9
Properties=species:S:1:pos:R:3:momenta:R:3:forces:R:3 R1=H R2=H R3=CH3 R4=CH3 leaving_group=Cl nucleophile=Cl rxn=sn2 config=rcc label=H_H_CH3_CH3_Cl_Cl_sn2_rcc conformation=0 reactant_id=H_H_CH3_CH3_Cl_none_-_r product_id=H_H_CH3_CH3_none_Cl_sn2_pc mp2_author_energy=-29302.391748605172 mp2_my_energy=0 hash=59123 address=T id=71 energy=-17371.682390859143 pbc="F F F"
C       -2.62932603      -2.61678438       0.63086013      -0.58356414      -0.17424799       0.17247580      -1.25183718      -2.19159072      -1.49206554
C       -4.04237488      -2.34653165       0.98770182       0.20177321      -1.00341990       0.08625055       0.71104259       0.31937738       2.41081799
H       -4.23526945      -3.04146098       1.81662314       0.02687995      -0.19439194       0.00024713      -0.42812219      -0.05129348      -0.20260221
F       -2.66399604      -4.09403408       0.23906844       0.10773764       0.40423781       0.07263392       0.59370961       1.09813881       0.50600718
Cl      -1.72229615       0.25563643       0.57963549      -1.30444893       0.05044540      -0.71408491      -0.15358130      -0.27598541       0.10624874
H       -2.32869904      -2.10736695      -0.21482540       0.16900103       0.23831071       0.01211980       0.56590898       0.83328876      -1.89139052
H       -1.86309719      -2.44794168       1.33744979      -0.01869913       0.15532869       0.40866017       0.37918054      -0.25280780       1.27992606
H       -4.79680453      -2.46996827       0.21955017       0.17759724       0.08490004       0.03250016       0.29353909       0.16987161      -0.29037852
H       -3.97615567      -1.35928846       1.44279133       0.05338169      -0.27165307       0.18094380      -0.70984015       0.35100085      -0.42656318
9
Properties=species:S:1:pos:R:3:momenta:R:3:forces:R:3 R1=H R2=H R3=CH3 R4=CH3 leaving_group=Cl nucleophile=Cl rxn=sn2 config=rcc label=H_H_CH3_CH3_Cl_Cl_sn2_rcc conformation=0 reactant_id=H_H_CH3_CH3_Cl_none_-_r product_id=H_H_CH3_CH3_none_Cl_sn2_pc mp2_author_energy=-29302.391748605172 mp2_my_energy=0 hash=59123 address=T id=71 energy=-17371.866805576163 pbc="F F F"
C       -2.63406130      -2.91105766       0.82247788       0.39286616      -0.25661936       0.27635462       0.21873871      -0.33056300      -4.08856961
C       -3.83246479      -3.19287892       1.57050937      -0.62418831       0.16582260       0.08319199      -1.51622463       0.72800976       1.53212731
H       -3.48254092      -3.77049509       2.40770506       0.13461768       0.04686986      -0.11990854      -0.23028680      -0.65761648       0.54830333
F       -2.10556813      -4.15181365       0.43907436       0.87982546       0.26501403      -0.11073782       0.51761007      -0.24148417       0.23234920
Cl      -3.05338819       0.17741467       0.35770182      -1.56817470      -0.95947402      -0.15413688       0.00874038      -0.49921213       0.20364750
H       -2.78037413      -2.37260836      -0.12416087      -0.23831868       0.07873477       0.35824438      -0.35764443      -0.02369048       0.45064812
H       -1.89583018      -2.35333712       1.31578134       0.11499985      -0.08862331      -0.25792575       0.94807079       0.56761549       1.23554020
H       -4.69492678      -3.69009778       1.07887364      -0.15512525       0.11766578       0.18578246       0.88708022       0.30787126      -0.05957453
H       -4.14161402      -2.22928522       1.96679665      -0.06147745      -0.05233971      -0.01887654      -0.47608429       0.14906974      -0.05447153
9
Properties=species:S:1:pos:R:3:momenta:R:3:forces:R:3 R1=H R2=H R3=CH3 R4=CH3 leaving_group=Cl nucleophile=Cl rxn=sn2 config=rcc label=H_H_CH3_CH3_Cl_Cl_sn2_rcc conformation=0 reactant_id=H_H_CH3_CH3_Cl_none_-_r product_id=H_H_CH3_CH3_none_Cl_sn2_pc mp2_author_energy=-29302.391748605172 mp2_my_energy=0 hash=59123 address=T id=71 energy=-17371.749683543138 pbc="F F F"
C       -2.67833004      -2.95802040       0.91618428      -0.21659091       0.94459797       0.15609700       1.58381237      -0.56330061      -3.17756041
C       -3.46502802      -3.46017078       2.02571470       0.09810332       0.43922941       0.44885164      -1.53970943       0.23300569       0.96483888
H       -2.86911605      -3.71594199       2.91422577      -0.17290748      -0.00248169       0.04775863       0.01719167       0.40440677      -0.31167693
F       -1.61473148      -3.83925563       0.63436616      -0.21348658       0.50104078      -0.14711106       0.39112868       0.11551936       0.84305604
Cl      -4.45744196      -0.47315140       0.24998278      -1.16287107      -2.68479786       0.42600644       0.15376558      -0.21812314       0.14017759
H       -3.05696289      -2.87135520      -0.11576412       0.15005062      -0.19097990      -0.30378841      -1.28374865       0.01836911       0.91883867
H       -2.32927834      -1.96635626       1.10400495      -0.04386541       0.22887760      -0.10204617       0.68357445       0.48938248       0.43286318
H       -4.15695363      -4.27309579       1.84371122       0.06392664      -0.12009850      -0.21490345       0.14480677      -0.38456981      -0.49732227
H       -4.09609587      -2.58329436       2.16430847      -0.03645776      -0.04670756       0.01912784      -0.15082143      -0.09468984       0.68678524
9
Properties=species:S:1:pos:R:3:momenta:R:3:forces:R:3 R1=H R2=H R3=CH3 R4=CH3 leaving_group=Cl nucleophile=Cl rxn=sn2 config=rcc label=H_H_CH3_CH3_Cl_Cl_sn2_rcc conformation=0 reactant_id=H_H_CH3_CH3_Cl_none_-_r product_id=H_H_CH3_CH3_none_Cl_sn2_pc mp2_author_energy=-29302.391748605172 mp2_my_energy=0 hash=59123 address=T id=71 energy=-17371.91491088151 pbc="F F F"
C       -2.79415401      -2.73625245       0.93817163       0.17974604       0.69934266      -0.95471897       1.26218574      -1.54973620      -2.41448483
C       -3.33309076      -3.33864404       2.14617222      -0.89745091       0.65507944       0.48891507      -0.52774075       0.70168013       1.17827241
H       -2.70892141      -3.12030255       3.00493013      -0.07678133       0.02639806       0.09573673       0.22347520      -0.05962233       0.29527291
F       -1.48894925      -3.25406738       0.79075602       0.34570138       0.27294654      -0.16719780      -0.43041827       0.71417819      -0.09914858
Cl      -5.42955619      -1.46047346       0.30560430      -0.86765831      -2.13175314       0.51153701      -0.48520613       0.29618438      -0.14498095
H       -3.39128930      -3.07025931       0.09346135      -0.01915556      -0.21876817       0.09568161       0.13714820      -0.30955492      -0.14856680
H       -2.83621148      -1.67944382       0.75908153      -0.17045591      -0.11792575       0.39159417       0.50913934       0.61590421       0.93358991
H       -3.46207264      -4.40945507       2.03526289       0.14855197       0.11520656      -0.23151843      -0.02153970      -0.13375173      -0.01882737
H       -4.27086299      -2.82454213       2.25408706      -0.05398145      -0.15740920       0.07358804      -0.66704362      -0.27528172       0.41887330
9
Properties=species:S:1:pos:R:3:momenta:R:3:forces:R:3 R1=H R2=H R3=CH3 R4=CH3 leaving_group=Cl nucleophile=Cl rxn=sn2 config=rcc label=H_H_CH3_CH3_Cl_Cl_sn2_rcc conformation=0 reactant_id=H_H_CH3_CH3_Cl_none_-_r product_id=H_H_CH3_CH3_none_Cl_sn2_pc mp2_author_energy=-29302.391748605172 mp2_my_energy=0 hash=59123 address=T id=71 energy=-17371.949116873904 pbc="F F F"
C       -3.17702456      -2.50555775       0.95038493      -0.39587021       0.80280713      -0.78837404      -1.37352657      -0.89472626      -0.62219507
C       -3.42870412      -3.13874330       2.26910933      -0.25914221      -0.18672388       0.61400960      -0.28580400      -0.22387752       1.43514320
H       -3.04536906      -2.54644621       3.09115045       0.12607608       0.13300823      -0.07050961       0.36023659       0.31038205       0.21679221
F       -1.80920596      -2.29143392       0.79416944      -0.61968517       0.64967020       0.04636011      -0.14165756       0.34835616      -0.21477698
Cl      -6.12750673      -2.78412960       0.46544610      -0.76229544      -2.05386894       0.05006257      -0.68604793       0.02532819      -0.25962632
H       -3.58675650      -3.21817328       0.21081452      -0.11771835      -0.17323796      -0.17474331       0.80366920       0.55139055      -0.12553597
H       -3.83639668      -1.61505288       0.84683944       0.29817277       0.16638943       0.20104142       1.27073602      -0.20298011       0.05115842
H       -3.07739645      -4.16915542       2.41784663       0.21092070      -0.06548722       0.27083658       0.18610471       0.25846760      -0.48454207
H       -4.50668415      -3.14487782       2.38632123      -0.02435130      -0.20982279       0.18341599      -0.13371048      -0.17234066       0.00358258
9
Properties=species:S:1:pos:R:3:momenta:R:3:forces:R:3 R1=H R2=H R3=CH3 R4=CH3 leaving_group=Cl nucleophile=Cl rxn=sn2 config=rcc label=H_H_CH3_CH3_Cl_Cl_sn2_rcc conformation=0 reactant_id=H_H_CH3_CH3_Cl_none_-_r product_id=H_H_CH3_CH3_none_Cl_sn2_pc mp2_author_energy=-29302.391748605172 mp2_my_energy=0 hash=59123 address=T id=71 energy=-17371.926446208687 pbc="F F F"
C       -3.82092434      -2.32564242       1.00022867      -0.22269505       0.85593012       0.51488419       0.92654500      -1.03804427       0.37646179
C       -3.55096209      -2.86216044       2.39617654      -0.35340462      -0.31982059       0.78548988      -0.16247018      -0.71779055      -1.42567954
H       -3.40011992      -1.99779530       3.03422285      -0.08596388       0.07360571      -0.01917315      -0.48176539      -0.03210280       0.37119820
F       -2.76241450      -1.48367632       0.71381624      -0.79219452       0.82259296      -0.87577714       1.38621523       1.21265977      -0.62772643
Cl      -6.33342987      -4.00872448       0.65702883      -0.75076981      -2.39082801       0.00332658      -0.18376693      -0.10473519      -0.02904095
H       -3.85381485      -3.08519684       0.19549828       0.15609972      -0.22574916      -0.08885040      -0.40065653       0.41670904       0.81598811
H       -4.68685999      -1.71766039       1.07756507       0.23013642       0.30321759       0.03864691      -1.05687707       0.18581190      -0.44913901
H       -2.63326676      -3.47074050       2.44022245       0.16363724       0.06765554      -0.17836369      -0.35450617      -0.00750356      -0.13524623
H       -4.46447995      -3.46261180       2.47236418       0.07961082      -0.14308437       0.15872433       0.32728204       0.08499566       1.10318405
9
Properties=species:S:1:pos:R:3:momenta:R:3:forces:R:3 R1=H R2=H R3=CH3 R4=CH3 leaving_group=Cl nucleophile=Cl rxn=sn2 config=rcc label=H_H_CH3_CH3_Cl_Cl_sn2_rcc conformation=0 reactant_id=H_H_CH3_CH3_Cl_none_-_r product_id=H_H_CH3_CH3_none_Cl_sn2_pc mp2_author_energy=-29302.391748605172 mp2_my_energy=0 hash=59123 address=T id=71 energy=-17371.842057444414 pbc="F F F"
C       -4.68391350      -2.26682790       1.10027359      -1.43056443       0.18767709      -0.05042777       1.36493784       1.41875953      -1.96816685
C       -3.95615497      -2.55389446       2.31668521       0.38779208       0.50056259       0.04465435       2.37084088      -1.40113769       1.70194802
H       -4.11098180      -1.88060598       3.17890007      -0.18612789      -0.13782513       0.11604065       0.05695169       0.14405791      -0.66749804
F       -4.32321317      -0.98582479       0.59901413      -0.86182587       0.25236218      -0.08279724      -0.21778823      -1.24302576       0.70606961
Cl      -6.08639274      -5.07166383       0.93427754       0.37007983      -2.08739731       0.18416360       0.17594345       0.36207039       0.05992605
H       -4.41604817      -2.99190220       0.32838851      -0.17077574      -0.00722296       0.07353778      -0.66102656       0.07524637       0.16477686
H       -5.66671853      -2.20670293       1.38971499      -0.21785541      -0.06476705      -0.05842507      -2.57869713      -0.18452980      -0.26695253
H       -2.87593805      -2.59550438       2.01531571      -0.00340708       0.14172027      -0.14151261      -0.67230732       0.16766836       0.75565862
H       -4.24140370      -3.57220095       2.67426596       0.26834947       0.09523238       0.31149221       0.16114538       0.66089069      -0.48576174
9
Properties=species:S:1:pos:R:3:momenta:R:3:forces:R:3 R1=H R2=H R3=CH3 R4=CH3 leaving_group=Cl nucleophile=Cl rxn=sn2 config=rcc label=H_H_CH3_CH3_Cl_Cl_sn2_rcc conformation=0 reactant_id=H_H_CH3_CH3_Cl_none_-_r product_id=H_H_CH3_CH3_none_Cl_sn2_pc mp2_author_energy=-29302.391748605172 mp2_my_energy=0 hash=59123 address=T id=71 energy=-17371.934287811087 pbc="F F F"
C       -5.74692136      -2.52139288       1.10787303      -0.76326728      -0.34930267       0.41463364       1.22921657       0.19706703       0.22278836
C       -4.51918779      -2.18916066       2.04432026       0.56604069       0.14169855       0.18740236      -1.24225341      -1.75229740      -0.47691031
H       -4.86654081      -1.64431769       2.96935665      -0.27491818       0.05116490      -0.01705360       0.48653501      -0.18292681      -1.25197174
F       -6.15934760      -1.23979078       0.69960882      -1.34453940      -0.33018222      -0.40584615      -0.31855474      -0.75592949      -0.22126132
Cl      -5.55356163      -5.65726066       1.23607039       0.87299341      -0.90780493       0.35595637       0.04243763       0.45907299       0.05890168
H       -5.47319233      -3.16314444       0.21538461      -0.47160045       0.23649976       0.05811754      -0.20396958       1.05719598       1.17431049
H       -6.55797784      -3.02750991       1.64260354      -0.18920345      -0.01286388      -0.11489775       0.16744061       0.25946672      -0.12744627