9
Properties=species:S:1:pos:R:3:momenta:R:3:forces:R:3 R1=H R2=H R3=CH3 R4=CH3 leaving_group=Cl nucleophile=Cl rxn=sn2 config=rcc label=H_H_CH3_CH3_Cl_Cl_sn2_rcc conformation=0 reactant_id=H_H_CH3_CH3_Cl_none_-_r product_id=H_H_CH3_CH3_none_Cl_sn2_pc mp2_author_energy=-29302.391748605172 mp2_my_energy=0 hash=59123 address=T id=71 energy=-17370.412368016237 pbc="F F F"
C        0.12542541       0.11270554      -0.00029240      -0.05500487      -0.59515315      -0.24109457      -0.09214561       1.11788396      -0.00082481
C        1.62503867       0.00847468       0.00156754      -0.16617141      -0.95723846       0.46348405      -0.06338950      -0.85342640       0.00215309
H        1.99473018      -0.50605055       0.89354482       0.11120709       0.09515445      -0.26315078       0.00320508       0.00300841       0.00517082
F        0.89788639       2.64149152      -0.00442372      -0.62568509      -0.56945548       0.84943686      -0.23271315      -0.10403772      -0.00076135
Cl      -0.69504884      -1.53494042       0.00509220      -0.45333810       0.51084155      -0.16843491       0.38207948      -0.16174994      -0.00050876
H       -0.22306082       0.64592326      -0.87549887      -0.13801624       0.04179019      -0.08365642      -0.00302890      -0.00293595      -0.00472561
H       -0.22431889       0.65275656       0.87018381      -0.14185111       0.05945466      -0.04160195      -0.00396382      -0.00350204       0.00469305
H        1.88822962       1.08069343      -0.00059746      -0.31315416      -0.13030817      -0.17297848       0.00778691       0.00253743      -0.00033365
H        1.99700981      -0.51031959      -0.88698835       0.14642465      -0.00501980       0.24933155       0.00216950       0.00222225      -0.00486279
9
Properties=species:S:1:pos:R:3:momenta:R:3:forces:R:3 R1=H R2=H R3=CH3 R4=CH3 leaving_group=Cl nucleophile=Cl rxn=sn2 config=rcc label=H_H_CH3_CH3_Cl_Cl_sn2_rcc conformation=0 reactant_id=H_H_CH3_CH3_Cl_none_-_r product_id=H_H_CH3_CH3_none_Cl_sn2_pc mp2_author_energy=-29302.391748605172 mp2_my_energy=0 hash=59123 address=T id=71 energy=-17370.170214592705 pbc="F F F"
C       -0.40503840      -0.42170207       0.11960564      -0.47933916      -1.04284717      -0.08816940      -2.25375830       0.94875083      -0.55029326
C        0.85158846      -0.94375319       0.63095714      -0.66379144       0.12726573       0.37755392       0.28744112      -0.76084913      -0.08921514
H        0.71769539      -1.53032369       1.51765142      -0.03081994       0.04312307       0.06620334      -0.04110536      -0.00590584       0.75606450
F        0.30724915       1.96630514       1.03651431      -0.03150044      -0.35752364       1.17934148      -0.11198305      -0.98452368      -0.45475596
Cl      -1.37774966      -2.00615938      -0.31404732      -1.34944414      -1.07125550      -0.68215881       0.16167191       0.69054845      -0.14459484
H       -0.29341991       0.18700043      -0.79511885       0.21538869      -0.12785126       0.05314502      -0.06041729      -0.53465395       0.43623224
H       -1.04587197       0.17555846       0.79606973       0.03638899      -0.05436669       0.03548545       0.86582044      -0.61824888      -0.23852200
H        1.36447422      -0.04408915       0.74510299      -0.18341593      -0.00400190      -0.01989209       1.11905448       1.43473717       0.81971545
H        1.37954437      -1.57466688      -0.06751562      -0.04204552       0.09129894      -0.00731966       0.03327604      -0.16985496      -0.53463100
9
Properties=species:S:1:pos:R:3:momenta:R:3:forces:R:3 R1=H R2=H R3=CH3 R4=CH3 leaving_group=Cl nucleophile=Cl rxn=sn2 config=rcc label=H_H_CH3_CH3_Cl_Cl_sn2_rcc conformation=0 reactant_id=H_H_CH3_CH3_Cl_none_-_r product_id=H_H_CH3_CH3_none_Cl_sn2_pc mp2_author_energy=-29302.391748605172 mp2_my_energy=0 hash=59123 address=T id=71 energy=-17370.31638578638 pbc="F F F"
C       -1.15710236      -1.11949804       0.50690778      -0.08523867       0.56224590       1.25286068      -0.62508814      -1.01411738      -1.47334201
C       -0.19794588      -1.94899672       1.24954524      -0.65884656      -1.33597215       0.02514139       0.57631817       0.59393227       0.91104414
H       -0.67645158      -2.72673975       1.84596119      -0.07708987      -0.22773787      -0.10529258       0.15308776      -0.42012147      -0.41301474
F       -0.36335720       0.90299002       1.98629926      -0.71356356      -0.19468570       0.26574898       0.14338873       0.04562461       0.14387627
Cl      -1.99310559      -2.35869094      -0.63378501      -0.74091680      -0.60453813      -0.82250642       0.00264132       0.48191178       0.00765169
H       -0.63753451      -0.39796026      -0.10115979      -0.04882813      -0.16371202       0.08405007      -0.15367324       0.22151266      -0.14584112
H       -1.91127147      -0.64393807       1.09180702      -0.03628264      -0.09733952      -0.00475925      -0.32562728       0.21774153       0.33004012
H        0.15215027      -1.19643745       1.94718416       0.11882081       0.08659960       0.32323427       0.52871546       0.28039408       0.23440949
H        0.61805381      -2.25565974       0.58026641       0.00418588      -0.14542924      -0.20943149      -0.29976279      -0.40687808       0.40517615
9
Properties=species:S:1:pos:R:3:momenta:R:3:forces:R:3 R1=H R2=H R3=CH3 R4=CH3 leaving_group=Cl nucleophile=Cl rxn=sn2 config=rcc label=H_H_CH3_CH3_Cl_Cl_sn2_rcc conformation=0 reactant_id=H_H_CH3_CH3_Cl_none_-_r product_id=H_H_CH3_CH3_none_Cl_sn2_pc mp2_author_energy=-29302.391748605172 mp2_my_energy=0 hash=59123 address=T id=71 energy=-17370.233809225956 pbc="F F F"
C       -1.96165984      -1.82894617       0.86052407      -1.15350117      -0.27149366      -0.13832066       0.34974023      -1.29435625       0.60670215
C       -1.29887038      -2.91273963       1.67022352      -0.50785427       0.03327480       0.77021100       0.10519235       0.05575157       1.30681302
H       -1.87799401      -3.84428943       1.92226943      -0.16113769      -0.01460983       0.01664625      -0.01754092       1.13870144      -0.40670705
F       -1.16181489      -0.39452164       2.78505548      -0.39705070      -2.09957288      -0.03071859      -0.37940078      -0.43598130      -0.56406593
Cl      -2.46996629      -2.56735311      -0.77756319      -0.04967264      -0.18567188       0.15175521      -0.24696083      -0.33000253      -0.36603889
H       -1.29173407      -1.05136850       0.61161993      -0.10862089       0.07579189       0.03936268       0.25916933       0.83011580       0.25260009
H       -2.86570656      -1.56832632       1.35270121      -0.13915198       0.11195991       0.03302715      -0.50449798       0.85612689       0.12533118
H       -1.10936698      -2.23599380       2.58841390       0.16920324      -0.09458353      -0.13357613       0.14318830      -0.98418831      -0.91084903
H       -0.37890823      -3.26264217       1.21017695       0.01603147       0.23526341       0.13464196       0.29111030       0.16383269      -0.04378554
9
Properties=species:S:1:pos:R:3:momenta:R:3:forces:R:3 R1=H R2=H R3=CH3 R4=CH3 leaving_group=Cl nucleophile=Cl rxn=sn2 config=rcc label=H_H_CH3_CH3_Cl_Cl_sn2_rcc conformation=0 reactant_id=H_H_CH3_CH3_Cl_none_-_r product_id=H_H_CH3_CH3_none_Cl_sn2_pc mp2_author_energy=-29302.391748605172 mp2_my_energy=0 hash=59123 address=T id=71 energy=-17370.0962465613 pbc="F F F"
C       -2.54595433      -2.60920370       1.25945397      -0.00197424      -0.68040291       0.24059857       0.00541777      -1.55024953      -2.15457923
C       -2.72548688      -4.02219467       1.73094377      -0.55365630      -0.49120483       0.41201059       2.69941753       0.08233295       0.56609988
H       -3.74806378      -4.28630639       1.69586488      -0.07299225       0.20238333       0.00807962      -0.94343837      -0.82109177      -0.01978673
F       -2.15647286      -1.76739361       3.42537251      -1.14517718      -1.11081530       0.72556294       0.20673465       0.12448959       1.22520627
Cl      -2.88497820      -2.73178882      -0.66289525      -0.90220406      -0.21701075      -0.59556046       0.15059243       0.11131707       0.03472210
H       -1.52896753      -2.30099508       1.42024769       0.09260197       0.04701558       0.04891003      -0.02918517       0.62337896      -0.26809672
H       -3.31792157      -1.98081930       1.62068554       0.02845521       0.23518847       0.12047305      -0.12139162       0.71560471       0.25343983
H       -2.33729183      -3.86027197       2.73244282       0.14537072      -0.31616502      -0.10815874      -0.65222481      -0.09075069       0.48904054
H       -1.98314130      -4.77072926       1.30478720      -0.15320776      -0.09756068       0.07464022      -1.31592243       0.80496870      -0.12604593
9
Properties=species:S:1:pos:R:3:momenta:R:3:forces:R:3 R1=H R2=H R3=CH3 R4=CH3 leaving_group=Cl nucleophile=Cl rxn=sn2 config=rcc label=H_H_CH3_CH3_Cl_Cl_sn2_rcc conformation=0 reactant_id=H_H_CH3_CH3_Cl_none_-_r product_id=H_H_CH3_CH3_none_Cl_sn2_pc mp2_author_energy=-29302.391748605172 mp2_my_energy=0 hash=59123 address=T id=71 energy=-17370.14461501538 pbc="F F F"
C       -3.30410020      -3.29947212       1.66759897      -1.02722454      -0.50835396      -0.16766472      -0.25986955      -0.86513226      -1.80257835
C       -4.12585210      -4.54573866       1.65807068      -0.78977447      -0.28363840      -0.97604090       0.21398986      -0.77921507      -0.60163775
H       -5.04512623      -4.42184233       1.05435924      -0.02804305      -0.19923849      -0.11053709       0.15741045       0.02414026       0.79227035
F       -3.08545490      -3.42914022       3.88859353       0.02350515      -0.87135924       1.32427714      -0.02477989      -0.10348632       0.69415192
Cl      -3.24715541      -3.00837052      -0.39073054      -0.40272150      -0.48880203       0.68660195       0.15578882       0.33802627       0.24696676
H       -2.26691113      -3.46492827       1.91171502      -0.01609064      -0.16802206       0.16213457      -0.12121173       0.60917898       0.06917861
H       -3.88688680      -2.47819258       2.02745631      -0.10654927       0.13528293       0.14352975       0.50955994       0.69184864       0.11978491
H       -4.19428916      -4.72249962       2.71806659      -0.36676154       0.00520381       0.12878376      -0.69979996      -0.16209742       0.38439773
H       -3.59865295      -5.39510921       1.19634752       0.01427074      -0.17909597      -0.21514003       0.06891206       0.24673692       0.09746583
9
Properties=species:S:1:pos:R:3:momenta:R:3:forces:R:3 R1=H R2=H R3=CH3 R4=CH3 leaving_group=Cl nucleophile=Cl rxn=sn2 config=rcc label=H_H_CH3_CH3_Cl_Cl_sn2_rcc conformation=0 reactant_id=H_H_CH3_CH3_Cl_none_-_r product_id=H_H_CH3_CH3_none_Cl_sn2_pc mp2_author_energy=-29302.391748605172 mp2_my_energy=0 hash=59123 address=T id=71 energy=-17370.006543882482 pbc="F F F"
C       -3.89346724      -4.12096232       2.01505212       0.29710198      -0.66172118       0.67661511      -1.54302200      -2.19227387      -1.53831009
C       -5.16336424      -4.98469269       1.72116167      -0.42409617       0.23182329      -0.67772245      -0.69225220       2.72965366      -0.15111419
H       -6.03943309      -4.25801829       1.68652683      -0.07988602      -0.05035411       0.21348037       0.99455586      -0.80016021      -0.11839558
F       -4.10135078      -4.84685131       3.95566206      -1.08252837      -1.26733128       0.29420873       0.17850016      -0.13016197       1.12002435
Cl      -3.57767284      -3.22017698      -0.01746467      -1.15158363      -0.64123995       0.11912278      -0.15083977      -0.17352913       0.08817256
H       -2.97925451      -4.68253591       1.96423430       0.03334022      -0.14342115       0.17424033       0.34541983       0.55556212       0.27976884
H       -4.06267693      -3.17026051       2.42302626      -0.14303798      -0.02318977       0.18636514       0.38496090       0.81135050       0.55943345
H       -5.35798863      -5.60095272       2.60049667       0.05454896       0.11276569      -0.17247327       0.39268345      -0.38834699      -0.37036290
H       -5.12092657      -5.44126664       0.73578103       0.10167347       0.17359803       0.05186554       0.08999377      -0.41209412       0.13078354
9
Properties=species:S:1:pos:R:3:momenta:R:3:forces:R:3 R1=H R2=H R3=CH3 R4=CH3 leaving_group=Cl nucleophile=Cl rxn=sn2 config=rcc label=H_H_CH3_CH3_Cl_Cl_sn2_rcc conformation=0 reactant_id=H_H_CH3_CH3_Cl_none_-_r product_id=H_H_CH3_CH3_none_Cl_sn2_pc mp2_author_energy=-29302.391748605172 mp2_my_energy=0 hash=59123 address=T id=71 energy=-17370.318706207945 pbc="F F F"
C       -4.60225943      -4.92489727       2.23853485      -1.04243274      -0.03411881      -0.16691205      -2.53513664      -0.96020911      -0.70994814
C       -6.03604498      -5.24140386       1.71372484      -0.04413052      -0.07314201      -0.34827205       0.75168409       0.40057918      -0.25818500
H       -6.72781820      -4.38179003       1.83468269       0.01616011       0.15697355      -0.05595432       0.45802408      -0.52066334       0.21151581
F       -4.90957133      -5.98734109       3.83560931      -0.15658765      -1.28406431       0.92533635       0.01970248      -0.26406006       0.44976631
Cl      -3.89334317      -3.50181836       0.47679980      -0.30925215      -0.44507983       0.58365471      -0.10022057       0.10521694      -0.33478928
H       -3.82662986      -5.57975711       1.92688255      -0.04663101       0.09813819      -0.08801834       0.58068496       0.02838158       0.05374759
H       -4.50070646      -4.06352514       2.82400024       0.09061396       0.03596311      -0.21948955       0.64976290       0.69469848       0.64452472
H       -6.39415226      -6.14772342       2.22643451       0.03331618      -0.00934514      -0.24769171       0.09140076       0.47651051       0.09860507
H       -6.00268405      -5.44240738       0.64500335      -0.08151426       0.09489023       0.17428835       0.08409794       0.03954581      -0.15523709
9
Properties=species:S:1:pos:R:3:momenta:R:3:forces:R:3 R1=H R2=H R3=CH3 R4=CH3 leaving_group=Cl nucleophile=Cl rxn=sn2 config=rcc label=H_H_CH3_CH3_Cl_Cl_sn2_rcc conformation=0 reactant_id=H_H_CH3_CH3_Cl_none_-_r product_id=H_H_CH3_CH3_none_Cl_sn2_pc mp2_author_energy=-29302.391748605172 mp2_my_energy=0 hash=59123 address=T id=71 energy=-17370.62771135615 pbc="F F F"
C       -5.07651506      -5.58441894       2.47110225      -0.84956927      -0.78797838      -0.60211187       0.53772065       0.55690251      -2.32615761
C       -6.42255180      -5.41406055       1.80861965       0.23760979       0.33158752       0.10734697      -0.48064165      -1.66044968       1.40679685
H       -7.05040228      -4.69799555       2.32508800      -0.21880500      -0.20142288      -0.06176678      -0.04157022       0.11938099       0.41162987
F       -5.64851312      -6.79097917       3.60886333      -0.92548793      -1.17438448       0.84374553      -0.34255226      -1.36514848       1.62790448
Cl      -4.20399727      -3.73466925       0.84816227      -0.45772660       0.44208193       0.14508108       0.28425595       0.02889147       0.02465598
H       -4.34102002      -6.20045639       1.97405227       0.03062160      -0.15688924       0.03908363      -0.25439652       0.03072024      -0.26253018
H       -4.57987349      -4.90006488       3.09966571       0.21587912      -0.29583607       0.24203302      -0.31141769       0.85587133       0.62209655
H       -6.88949683      -6.44001946       1.91302890      -0.06081609       0.04655492      -0.13211693       0.22419095       1.22471582      -0.31755621
H       -6.39191738      -5.10189555       0.80103330       0.10549140      -0.02582002       0.11388073       0.38441080       0.20911581      -1.18683972
9
Properties=species:S:1:pos:R:3:momenta:R:3:forces:R:3 R1=H R2=H R3=CH3 R4=CH3 leaving_group=Cl nucleophile=Cl rxn=sn2 config=rcc label=H_H_CH3_CH3_Cl_Cl_sn2_rcc conformation=0 reactant_id=H_H_CH3_CH3_Cl_none_-_r product_id=H_H_CH3_CH3_none_Cl_sn2_pc mp2_author_energy=-29302.391748605172 mp2_my_energy=0 hash=59123 address=T id=71 energy=-17370.87606891913 pbc="F F F"
C       -6.02955053      -6.16337422       2.43601600      -0.88352019       0.15114400      -0.20332805       2.50911780      -0.23848701      -0.10195868
C       -7.41094781      -5.83408745       1.94598703      -0.14104212      -0.37304194       0.15516375       1.35396486       1.59343878      -0.05701156
H       -8.01061180      -5.30716702       2.71721624       0.18412271      -0.04149703       0.17956227       0.59093762       0.04473070      -0.57013147
F       -6.15114635      -7.59682473       3.25876275      -0.43385220      -1.28568754      -0.19269500      -0.39929480      -0.04158241       0.20463845
Cl      -4.42481287      -4.12074460       1.45636249      -0.49649244      -0.75081507       0.87039434      -0.25188203       0.19196690      -0.19159071
H       -5.22039186      -6.44950256       1.73414137       0.07196044       0.02225567       0.08772625      -1.47484030      -0.11504004      -0.05294496
H       -5.45403968      -5.53817936       3.11639665      -0.15916294       0.21011655       0.03069905      -1.21491507      -0.08992435       0.36660375
H       -7.92310072      -6.74585273       1.75227406      -0.06131681       0.17037407      -0.08156993      -0.28880831      -0.82719081      -0.57595761
H       -7.20109756      -5.20646457       1.02690723      -0.03886300       0.04153300      -0.13799185      -0.82427976      -0.51791176       0.97835279
9
Properties=species:S:1:pos:R:3:momenta:R:3:forces:R:3 R1=H R2=H R3=CH3 R4=CH3 leaving_group=Cl nucleophile=Cl rxn=sn2 config=rcc label=H_H_CH3_CH3_Cl_Cl_sn2_rcc conformation=0 reactant_id=H_H_CH3_CH3_Cl_none_-_r product_id=H_H_CH3_CH3_none_Cl_sn2_pc mp2_author_energy=-29302.391748605172 mp2_my_energy=0 hash=59123 address=T id=71 energy=-17371.443123666337 pbc="F F F"
C       -6.53234484      -6.92957478       2.49953332       0.41525043       0.05193040       0.52002135       2.29681886      -0.57462488       0.34259757
C       -7.71084233      -6.03755521       2.26151198       0.06219073       0.55646741       0.58216689      -1.08470731      -0.88113774       1.64338101
H       -8.12659116      -6.03600042       1.28058906       0.11786053      -0.13445488       0.04386747       0.13136531      -0.06012553      -1.00665019
F       -7.13126297      -8.34849937       2.75900911      -0.73835128      -0.66229806      -0.88167688      -0.02592589       0.61398405       0.04174816
Cl      -5.00891224      -4.69253937       2.07020322      -1.45798722      -1.20645934       0.56298428       0.47929420       0.34125351      -0.07092538
H       -5.72985423      -7.17979174       1.76891549       0.05408616      -0.00553582      -0.05744279      -1.45071374       0.67909611       0.06178345
H       -5.94661641      -6.66271476       3.40408497      -0.25987430      -0.01458856       0.15329514      -1.00307075      -0.41159071      -0.42228823
H       -7.53899031      -5.01596615       2.60613058       0.23682010      -0.11640210      -0.12778542       0.08617305      -0.24967461      -0.23205467
H       -8.51053059      -6.49359479       2.90418315      -0.19023704      -0.13671792      -0.15902743       0.57076625       0.54281979      -0.35759172
9
Properties=species:S:1:pos:R:3:momenta:R:3:forces:R:3 R1=H R2=H R3=CH3 R4=CH3 leaving_group=Cl nucleophile=Cl rxn=sn2 config=rcc label=H_H_CH3_CH3_Cl_Cl_sn2_rcc conformation=0 reactant_id=H_H_CH3_CH3_Cl_none_-_r product_id=H_H_CH3_CH3_none_Cl_sn2_pc mp2_author_energy=-29302.391748605172 mp2_my_energy=0 hash=59123 address=T id=71 energy=-17371.586739433737 pbc="F F F"
C       -7.18322579      -7.40104001       2.52361156      -0.21525927      -1.23855470      -0.49458958       0.20325547       0.00864937      -0.66264689
C       -8.41216186      -6.58638563       2.68964487      -0.76384371      -0.20363645       0.22756081      -0.82412046       1.20350734      -1.04291218
H       -8.86425660      -6.20602077       1.72177160       0.13207429      -0.03008095      -0.12940719       0.63249465      -0.85194863       0.83317840
F       -7.73342326      -8.78613969       2.15079137       0.07169248       0.39810154       0.18068925      -0.42394729      -1.21267060      -0.13108884
Cl      -5.37507077      -5.22675253       2.65865715       0.19649767      -0.53128542       0.78147755      -0.19817045      -0.09994486       0.07559963
H       -6.60617764      -7.18417005       1.64120541      -0.33595380       0.28303247      -0.02825294       0.39277490       0.25837426       0.19944123
H       -6.60158929      -7.60612216       3.41348447      -0.13353554       0.10811980      -0.20307244       0.05584115       0.27570642      -0.02245147
H       -8.17213801      -5.68565867       3.20508014      -0.19395316       0.05391352       0.07461654       0.21150376       0.74428399       0.60162143
H       -9.17880670      -7.12239570       3.23739643      -0.07331650      -0.08631012       0.06662269      -0.04963173      -0.32595729       0.14925870
9
Properties=species:S:1:pos:R:3:momenta:R:3:forces:R:3 R1=H R2=H R3=CH3 R4=CH3 leaving_group=Cl nucleophile=Cl rxn=sn2 config=rcc label=H_H_CH3_CH3_Cl_Cl_sn2_rcc conformation=0 reactant_id=H_H_CH3_CH3_Cl_none_-_r product_id=H_H_CH3_CH3_none_Cl_sn2_pc mp2_author_energy=-29302.391748605172 mp2_my_energy=0 hash=59123 address=T id=71 energy=-17371.323203437933 pbc="F F F"
C       -7.74524100      -7.83606192       2.45992981      -0.20027893      -1.22681542       0.04725066      -1.05116157       2.65950194       0.54017805
C       -9.04505548      -7.06928566       2.98848117       0.50658966       0.26268422       0.31139253       1.54057135      -3.71234368      -2.18212132
H       -9.45427469      -6.54249962       2.14059189      -0.31562594      -0.15549987      -0.23507864      -0.45283179       0.31891629       0.08167775
F       -8.25814539      -9.03176979       1.65856725      -0.57164615       0.49529890      -0.26851390      -0.83278389      -1.13317872      -0.08851184
Cl      -5.83368627      -5.86951043       3.25891741      -1.59523962      -1.05549373       1.12624978      -0.38854551      -0.24244828       0.00814732
H       -7.22463736      -7.33954257       1.66657072       0.07610547      -0.08995681      -0.34105150       0.47779047       0.44202521       0.35005536
H       -7.16709330      -8.22209065       3.26893836       0.00440152      -0.16237453      -0.06367254       0.53259741      -0.34628762       0.13306527
H       -8.87269328      -6.50570118       3.84048977       0.10980586       0.07978502       0.16927585       0.66248701       1.54113914       1.37843426
H       -9.63744009      -7.95053246       3.28225094      -0.02210343      -0.05046177      -0.01987754      -0.48812349       0.47267572      -0.22092485
9
Properties=species:S:1:pos:R:3:momenta:R:3:forces:R:3 R1=H R2=H R3=CH3 R4=CH3 leaving_group=Cl nucleophile=Cl rxn=sn2 config=rcc label=H_H_CH3_CH3_Cl_Cl_sn2_rcc conformation=0 reactant_id=H_H_CH3_CH3_Cl_none_-_r product_id=H_H_CH3_CH3_none_Cl_sn2_pc mp2_author_energy=-29302.391748605172 mp2_my_energy=0 hash=59123 address=T id=71 energy=-17371.458786481144 pbc="F F F"
C       -8.15605481      -8.23580751       2.33687514      -0.48375904       0.31452354      -0.19069027       1.02199434      -1.34578920      -0.78125293
C       -9.24839918      -7.61603015       3.08246634      -0.21914194      -1.05015404      -0.35587603      -2.15552056      -0.15610478      -0.47277876
H       -9.84908977      -6.96285761       2.43418677      -0.32830310      -0.28077992      -0.04853491       0.47606886       0.02550913      -0.00500384
F       -8.91561320      -9.15368380       1.32421221      -0.62258584       0.00367376       0.44175566       0.29534197       0.17031896       0.32203058
Cl      -6.47930641      -6.60279611       3.89545090      -0.09877933      -1.10764372       1.43050476       0.30837699      -0.05857412      -0.09976312
H       -7.68458896      -7.52517880       1.67512149      -0.17844199      -0.03752880       0.01624920       0.54125078      -0.12796071       0.05683623
H       -7.42807182      -8.94292918       2.83244559       0.18389947       0.30361419      -0.15863476      -1.14367653       1.12761804      -0.46281039
H       -8.89309925      -7.09635586       3.90673884       0.20161118       0.03371949      -0.25632841       0.69357963       1.35997666       1.44457390
H       -9.99511516      -8.27823621       3.48756344      -0.22954491       0.13848829      -0.23669049      -0.03741549      -0.99499399      -0.00183168
9
Properties=species:S:1:pos:R:3:momenta:R:3:forces:R:3 R1=H R2=H R3=CH3 R4=CH3 leaving_group=Cl nucleophile=Cl rxn=sn2 config=rcc label=H_H_CH3_CH3_Cl_Cl_sn2_rcc conformation=0 reactant_id=H_H_CH3_CH3_Cl_none_-_r product_id=H_H_CH3_CH3_none_Cl_sn2_pc mp2_author_energy=-29302.391748605172 mp2_my_energy=0 hash=59123 address=T id=71 energy=-17371.371674011207 pbc="F F F"
C       -8.75278897      -8.40282058       2.40920899      -0.39844787      -0.59940369      -0.46607079      -1.33146062       0.43531342      -0.75670020
C      -10.10382771      -8.23512443       3.11498250      -0.33923387      -0.06755348       0.08143881       1.78416873      -1.21811480      -0.58885690
H      -10.82510463      -8.01928625       2.36158071      -0.13863614      -0.07167429       0.00755825      -0.62722753       0.33238358      -0.67568700
F       -9.19872535      -9.13928357       1.09447570       0.74370432       0.81880507       0.86136835       0.78642911       0.36774167       1.21791844
Cl      -6.86112659      -7.34624524       4.38059971      -1.21038708      -1.52246752      -0.16072710      -0.61048778      -0.10155558      -0.32113961
H       -8.26196897      -7.52496885       2.07923160      -0.10776952      -0.14312983      -0.00673696      -0.08625332       1.04444351      -0.58991469
H       -7.98989944      -8.92195506       2.91101862      -0.22927913      -0.01456902       0.02453767       0.30890501      -1.57300094       0.30313608
H      -10.06469657      -7.47400172       3.85300971      -0.19062376       0.23588538       0.25257194       0.08517711       0.54147574       0.97502274
H      -10.32616311      -9.23080258       3.49780232       0.21124209      -0.20841997       0.00601499      -0.30925071       0.17131340       0.43622114
9
Properties=species:S:1:pos:R:3:momenta:R:3:forces:R:3 R1=H R2=H R3=CH3 R4=CH3 leaving_group=Cl nucleophile=Cl rxn=sn2 config=rcc label=H_H_CH3_CH3_Cl_Cl_sn2_rcc conformation=0 reactant_id=H_H_CH3_CH3_Cl_none_-_r product_id=H_H_CH3_CH3_none_Cl_sn2_pc mp2_author_energy=-29302.391748605172 mp2_my_energy=0 hash=59123 address=T id=71 energy=-17371.572726441846 pbc="F F F"
C       -9.06811916      -8.70128016       2.48042979       0.08839210      -0.35237399      -0.39008508      -2.35072085       0.10177701      -1.78753028
C      -10.31000206      -8.82335809       3.32538185       0.51374187      -0.15171171       0.66297055       0.27201680       0.87272801       0.02434161
H      -11.09301853      -8.17497831       2.93824629       0.08469200       0.07616243      -0.11883395      -0.10296946       0.16870929       0.03287685
F       -9.53689698      -8.97454518       0.98672717      -0.30910923       0.25522499      -0.53036021       0.59196792       0.20136635       2.36090878
Cl      -7.55982743      -8.10138454       4.70988060      -1.72637460      -0.92815462       0.36154113       0.29095948       0.10287413       0.30234696
H       -8.70189595      -7.70365835       2.43838465      -0.14382028       0.04926165       0.02374638       0.64510439       0.33375152      -0.12993269
H       -8.41068262      -9.47310120       2.74233723      -0.03577683      -0.18849997       0.01627393       1.33520281      -0.68150673      -0.31495015
H      -10.05251832      -8.56446265       4.36615186       0.31481529      -0.00752799       0.35747037      -0.24977440      -0.11633949      -0.52299026
H      -10.66035644      -9.82574734       3.27172632      -0.12534634      -0.02105523       0.10130521      -0.43178668      -0.98336007       0.03492918
9
Properties=species:S:1:pos:R:3:momenta:R:3:forces:R:3 R1=H R2=H R3=CH3 R4=CH3 leaving_group=Cl nucleophile=Cl rxn=sn2 config=rcc label=H_H_CH3_CH3_Cl_Cl_sn2_rcc conformation=0 reactant_id=H_H_CH3_CH3_Cl_none_-_r product_id=H_H_CH3_CH3_none_Cl_sn2_pc mp2_author_energy=-29302.391748605172 mp2_my_energy=0 hash=59123 address=T id=71 energy=-17371.51732133464 pbc="F F F"
C       -9.47442034      -8.95936401       2.54091456      -0.34887735      -0.86647837      -0.67108919      -0.26066966      -0.11994650       1.88659855
C      -10.77329277      -9.46063944       3.18618463      -0.66191710      -0.25681889      -0.57144677       1.21661423      -1.48099651       1.50568191
H      -11.45526870      -8.63690344       3.32318640      -0.35874577      -0.03751648      -0.12381208      -0.21892327       0.29764804       0.29838487
F       -9.87298995      -8.83528353       1.06487185      -0.72722768       0.25006956       0.60901931      -0.09956197       0.44173218      -0.85104311
Cl      -8.09563694      -8.81235491       5.09091083       0.15217852      -0.80395280       1.48886556      -0.33277262      -0.05979722      -0.60780145
H       -9.19064705      -7.96375825       2.90728250       0.25646912       0.13974561       0.13834198      -0.01746699      -0.54034058      -0.52686690
H       -8.63146954      -9.64418087       2.50775654       0.11932883       0.03855345       0.20129558      -0.22191545       0.05350588       0.27945208