9
Properties=species:S:1:pos:R:3:momenta:R:3:forces:R:3 R1=H R2=H R3=CH3 R4=CH3 leaving_group=Cl nucleophile=Cl rxn=sn2 config=rcc label=H_H_CH3_CH3_Cl_Cl_sn2_rcc conformation=0 reactant_id=H_H_CH3_CH3_Cl_none_-_r product_id=H_H_CH3_CH3_none_Cl_sn2_pc mp2_author_energy=-29302.391748605172 mp2_my_energy=0 hash=59123 address=T id=71 energy=-17370.412368016237 pbc="F F F"
C        0.12542541       0.11270554      -0.00029240       0.99637522      -0.72840580       0.17788332      -0.09214561       1.11788396      -0.00082481
C        1.62503867       0.00847468       0.00156754       0.00084829      -0.15789019       0.41265407      -0.06338950      -0.85342640       0.00215309
H        1.99473018      -0.50605055       0.89354482       0.14840961      -0.01757852      -0.18794819       0.00320508       0.00300841       0.00517082
F        0.89788639       2.64149152      -0.00442372       0.93291006       0.95191711       1.22269000      -0.23271315      -0.10403772      -0.00076135
Cl      -0.69504884      -1.53494042       0.00509220       0.18346551      -0.24029099      -0.68218039       0.38207948      -0.16174994      -0.00050876
H       -0.22306082       0.64592326      -0.87549887      -0.45251639       0.03154345      -0.23540915      -0.00302890      -0.00293595      -0.00472561
H       -0.22431889       0.65275656       0.87018381      -0.28613021       0.13908046      -0.24764939      -0.00396382      -0.00350204       0.00469305
H        1.88822962       1.08069343      -0.00059746      -0.09238769      -0.02303679       0.37371219       0.00778691       0.00253743      -0.00033365
H        1.99700981      -0.51031959      -0.88698835      -0.09885002      -0.03588568      -0.09202961       0.00216950       0.00222225      -0.00486279
9
Properties=species:S:1:pos:R:3:momenta:R:3:forces:R:3 R1=H R2=H R3=CH3 R4=CH3 leaving_group=Cl nucleophile=Cl rxn=sn2 config=rcc label=H_H_CH3_CH3_Cl_Cl_sn2_rcc conformation=0 reactant_id=H_H_CH3_CH3_Cl_none_-_r product_id=H_H_CH3_CH3_none_Cl_sn2_pc mp2_author_energy=-29302.391748605172 mp2_my_energy=0 hash=59123 address=T id=71 energy=-17370.32862245235 pbc="F F F"
C        0.50590329       0.11249913       0.20447282       0.20524965      -0.91893493      -0.04773083       0.96438877       0.19512829       0.97507687
C        1.93758024      -0.33460901       0.45828965       0.22128838       0.63418380       0.59112065      -0.61984647       0.41396413       0.33113109
H        1.99329366      -1.22578506       1.09584470      -0.01048699       0.02178662       0.00284425      -0.07636724       0.39031456       0.24104246
F        1.34421542       2.37207962       1.29257167       0.29566708      -0.70893558       0.66900327      -0.06976934      -0.38892014      -0.20191461
Cl      -0.37846928      -1.29504168      -0.50831865      -0.10109861       0.49932589      -0.83431239      -0.31842128      -0.07837281      -0.18724268
H        0.49536181       0.99635721      -0.38611136       0.22998640      -0.10739040       0.17886603      -0.05208407       0.31225433      -1.03994744
H        0.07785673       0.49728544       1.11749360      -0.06361199       0.28477342       0.14179795      -0.30444730      -0.51368236       0.32660887
H        2.30478602       0.61144332       0.88584279       0.13481341       0.16859764      -0.18656147       0.29749242      -0.28708708       0.34588835
H        2.47409368      -0.58171596      -0.43774096       0.03652720       0.06925246       0.01300233       0.17905451      -0.04359893      -0.79064291
9
Properties=species:S:1:pos:R:3:momenta:R:3:forces:R:3 R1=H R2=H R3=CH3 R4=CH3 leaving_group=Cl nucleophile=Cl rxn=sn2 config=rcc label=H_H_CH3_CH3_Cl_Cl_sn2_rcc conformation=0 reactant_id=H_H_CH3_CH3_Cl_none_-_r product_id=H_H_CH3_CH3_none_Cl_sn2_pc mp2_author_energy=-29302.391748605172 mp2_my_energy=0 hash=59123 address=T id=71 energy=-17370.22308943213 pbc="F F F"
C        0.86414388       0.13188402       0.45098480      -0.37148720       0.31873899       0.17798479       0.56395615       2.24620172      -1.39543627
C        2.07130880      -0.61476302       0.78172646       0.22594443      -0.56725730      -0.06666613       0.39372754      -0.93409400       0.51244075
H        1.78401757      -1.59636038       1.17026632       0.35476196      -0.22466571       0.25803282       0.23760681      -0.23723695      -0.28068556
F        1.66711165       1.70780579       2.43808489      -0.12980431      -1.18338970       0.05752535      -0.35219243      -0.70627247      -0.87630933
Cl       0.10107612      -0.86812318      -0.89190791       1.03707588       1.19368261      -0.05724213      -0.39036820       0.12782622      -0.16876971
H        1.07913086       1.14568846       0.07253271       0.16323590       0.34083337      -0.07155649       0.08440368      -0.64352698      -0.09368149
H        0.18097145       0.32458828       1.19618624      -0.01776057       0.10708398       0.18380501      -1.42288241      -0.18154436       1.86585070
H        2.50664114      -0.06415037       1.60916564      -0.07960806      -0.08777632       0.21800900       0.44449461       0.49678184      -0.10422739
H        2.64935388      -0.69296284      -0.14516779       0.09888771       0.02527950       0.01350154       0.44125427      -0.16813502       0.54081829
9
Properties=species:S:1:pos:R:3:momenta:R:3:forces:R:3 R1=H R2=H R3=CH3 R4=CH3 leaving_group=Cl nucleophile=Cl rxn=sn2 config=rcc label=H_H_CH3_CH3_Cl_Cl_sn2_rcc conformation=0 reactant_id=H_H_CH3_CH3_Cl_none_-_r product_id=H_H_CH3_CH3_none_Cl_sn2_pc mp2_author_energy=-29302.391748605172 mp2_my_energy=0 hash=59123 address=T id=71 energy=-17370.25356874933 pbc="F F F"
C        1.34347118       0.11329616       0.77983739       0.10050635      -0.37158385       1.15041741      -1.21804697      -2.12332501       0.65839607
C        2.24263675      -1.10605027       1.01919142      -0.46778829       0.11924111      -0.42303169       0.32090396       1.50410605       0.41532488
H        1.72526354      -2.04523892       0.90731872      -0.19721027      -0.00933475      -0.14437518      -0.51059128      -0.16832081       0.36100995
F        1.71156047       0.62981220       3.27794250       0.06246485      -0.90639742       0.88639272      -0.08495064      -0.29522174      -1.24338815
Cl       0.78424892      -0.12036947      -1.03967571       1.77986677       1.09639252       0.10718358      -0.18386444       0.11145553       0.31663560
H        1.79628089       1.04683881       0.74484784       0.25856622      -0.04772751      -0.47057586       1.12823145       1.35190539       0.23814181
H        0.46883208       0.17047284       1.46499681      -0.42121595       0.01279693      -0.07217419       0.87480062      -0.31177138      -0.74557766
H        2.57905109      -0.84197087       2.03111091       0.31796058       0.00064139      -0.05075214      -0.17319655      -0.55563114       0.17609814
H        3.11278182      -1.17946990       0.36041048       0.18358987       0.00821533      -0.08288864      -0.15328615       0.48680311      -0.17664064
9
Properties=species:S:1:pos:R:3:momenta:R:3:forces:R:3 R1=H R2=H R3=CH3 R4=CH3 leaving_group=Cl nucleophile=Cl rxn=sn2 config=rcc label=H_H_CH3_CH3_Cl_Cl_sn2_rcc conformation=0 reactant_id=H_H_CH3_CH3_Cl_none_-_r product_id=H_H_CH3_CH3_none_Cl_sn2_pc mp2_author_energy=-29302.391748605172 mp2_my_energy=0 hash=59123 address=T id=71 energy=-17370.17679409569 pbc="F F F"
C        1.77235605      -0.08882636       1.06986663       0.54657503       0.74976663      -0.06614117       2.91590719       2.20298459       0.28297142
C        2.21463122      -1.47369218       0.99112541      -0.39065119      -0.06631004      -0.15437374      -0.85767227      -1.33568786      -0.91450139
H        1.46298299      -2.09992492       0.48108194       0.07567725      -0.26209016      -0.03509122       0.23174659       0.15204095      -0.10055380
F        1.63815013      -0.52531396       3.51717880      -0.00079641      -0.60881238      -0.62670114       0.00428852       0.13655727      -0.88718313
Cl       1.67306550       0.68369501      -0.71275994       1.28793832       0.45223953       1.63898580      -0.13642434      -0.56858350      -0.11245197
H        2.53576559       0.59476958       1.47537167       0.11393224      -0.26713027       0.00175562      -0.43249242      -0.71114106       0.12017379
H        0.89575118       0.13952187       1.53107204      -0.17728038      -0.16136180       0.00488697      -2.47026932       0.16374131       1.13627312
H        2.19251320      -1.76743221       2.04052023      -0.13839711      -0.22515978       0.04410593       0.53208241       0.11474016       0.26341051
H        3.15817287      -1.56290807       0.46032792       0.05514840       0.30589141      -0.04342022       0.21283363      -0.15465186       0.21186144
9
Properties=species:S:1:pos:R:3:momenta:R:3:forces:R:3 R1=H R2=H R3=CH3 R4=CH3 leaving_group=Cl nucleophile=Cl rxn=sn2 config=rcc label=H_H_CH3_CH3_Cl_Cl_sn2_rcc conformation=0 reactant_id=H_H_CH3_CH3_Cl_none_-_r product_id=H_H_CH3_CH3_none_Cl_sn2_pc mp2_author_energy=-29302.391748605172 mp2_my_energy=0 hash=59123 address=T id=71 energy=-17370.190887093813 pbc="F F F"
C        2.17780789      -0.18295273       1.39040719      -0.57105628       0.26197498      -0.06570719      -0.00866704       0.40444091      -0.11984736
C        2.05559755      -1.43731621       0.58208647       0.06981226      -0.09115995      -0.04951039       1.53558850      -1.11299655       0.50179163
H        1.37561600      -1.45809999      -0.27325391      -0.11525249      -0.05268600      -0.12627556       0.04442608       0.49299444       0.24279942
F        1.57310318      -1.57164075       3.23919763       0.28864093      -0.18022437      -0.86900161       0.10119234       0.17583070      -0.02563348
Cl       2.66242320       1.21763015       0.06741664       1.02410736       0.39321311       1.21850774       0.09647256      -0.02183773      -0.14740667
H        2.94545415      -0.07279851       2.14346364       0.08506616      -0.13493251       0.28787342       0.13504787      -0.66827474      -0.33316966
H        1.28930736       0.21838502       1.80075496       0.25050929       0.01812772       0.08387014      -0.89054062      -0.03126277       0.14536881
H        1.79621996      -2.17738911       1.34432249       0.08092492      -0.08192256       0.02066240      -0.60637340       0.21850470       0.08585992
H        3.06282430      -1.79575501       0.27965462      -0.04407926      -0.19700775       0.09461489      -0.40714628       0.54260105      -0.34976262
9
Properties=species:S:1:pos:R:3:momenta:R:3:forces:R:3 R1=H R2=H R3=CH3 R4=CH3 leaving_group=Cl nucleophile=Cl rxn=sn2 config=rcc label=H_H_CH3_CH3_Cl_Cl_sn2_rcc conformation=0 reactant_id=H_H_CH3_CH3_Cl_none_-_r product_id=H_H_CH3_CH3_none_Cl_sn2_pc mp2_author_energy=-29302.391748605172 mp2_my_energy=0 hash=59123 address=T id=71 energy=-17369.84920428 pbc="F F F"
C        2.48588403      -0.39916933       1.62095443      -0.26091099      -0.26311411      -0.78581859      -3.17890878       1.16730763      -1.54433758
C        2.10789534      -0.86663061       0.20319807       0.16846057       0.57904468       0.33627474      -1.85873908       0.37891940       0.58761846
H        1.52581462      -0.06982766      -0.30789695      -0.17165851      -0.05493495      -0.02166335       0.59279280      -0.23438988       0.17683136
F        1.61014326      -2.28441641       2.65114728      -0.19197649      -0.81218200      -0.82435577       0.38982827       0.97979719      -0.74353215
Cl       3.49845856       1.37681977       1.02247946       1.53762344       0.30696671       1.88736907       0.05481603      -0.00521497       0.21347985
H        3.24794266      -0.95602698       1.98094614       0.14529362      -0.01603646       0.03971751       1.99629554      -1.27496181       1.85499845
H        1.66958002       0.06402902       2.27336320       0.39176100       0.11752469       0.03067942       1.46517516      -1.07735273      -1.09625810
H        1.35376126      -1.67113822       0.36870398       0.05496335      -0.05494553       0.24465573       1.02908312       0.06881354      -0.12969299
H        2.96706453      -1.13827212      -0.44267198       0.10726579       0.08999952       0.08469742      -0.49034308      -0.00291836       0.68089270
9
Properties=species:S:1:pos:R:3:momenta:R:3:forces:R:3 R1=H R2=H R3=CH3 R4=CH3 leaving_group=Cl nucleophile=Cl rxn=sn2 config=rcc label=H_H_CH3_CH3_Cl_Cl_sn2_rcc conformation=0 reactant_id=H_H_CH3_CH3_Cl_none_-_r product_id=H_H_CH3_CH3_none_Cl_sn2_pc mp2_author_energy=-29302.391748605172 mp2_my_energy=0 hash=59123 address=T id=71 energy=-17370.076303328126 pbc="F F F"
C        2.97699808      -0.70301683       1.62349852       0.65844203      -0.15902154      -0.95947105      -0.30458896       0.61631474       0.28466312
C        2.29631116      -0.13528613       0.43297723       0.32414050       0.44070512       0.77684810       0.26754173       0.46841184      -1.61720648
H        1.64636277       0.72938767       0.70680440       0.10930484       0.07814443       0.16292996       0.30017599      -0.83621633      -0.19272084
F        1.75698968      -2.53034318       1.53281245      -0.14204873      -0.44225856      -0.42014579       0.04517754      -0.03823229      -0.12010206
Cl       4.20958010       1.24838208       2.12730580       0.31591047      -0.53181951       0.90047421      -0.20711566      -0.35609974      -0.08054533
H        3.89947378      -1.23786728       1.49374658      -0.06671631       0.25080842       0.03387999       0.02380720      -0.11271391       0.22010348
H        2.40250940      -0.72514347       2.53957291      -0.29558491       0.21004403      -0.00269946       0.55228661      -0.04174099      -0.06305125
H        1.74839999      -1.00381486       0.00933040       0.16167039      -0.05101189       0.07041093       0.00784796       0.71687197       0.44134342
H        3.01841853       0.23731529      -0.36177977       0.06088780       0.13632550       0.06472988      -0.68513241      -0.41659529       1.12751594
9
Properties=species:S:1:pos:R:3:momenta:R:3:forces:R:3 R1=H R2=H R3=CH3 R4=CH3 leaving_group=Cl nucleophile=Cl rxn=sn2 config=rcc label=H_H_CH3_CH3_Cl_Cl_sn2_rcc conformation=0 reactant_id=H_H_CH3_CH3_Cl_none_-_r product_id=H_H_CH3_CH3_none_Cl_sn2_pc mp2_author_energy=-29302.391748605172 mp2_my_energy=0 hash=59123 address=T id=71 energy=-17370.10802426986 pbc="F F F"
C        3.30207080      -0.76846580       1.63166753      -0.78198362       0.86256173      -0.15134523       1.13843845      -0.07531336      -0.46455017
C        2.52508666       0.32411327       0.94952383       0.11802629       0.09551088       0.77071325       0.54616100       0.12413375      -0.59861707
H        2.38605769       1.12693416       1.69675285      -0.07283991       0.06247941      -0.07793519      -0.31358447      -0.34628961      -0.67359497
F        2.27299987      -2.16649630       0.48132302       1.13927826       0.21397429      -0.38612552      -0.34726360      -0.68672930      -0.33610175
Cl       4.66942017       0.81930733       2.99963718       0.65803631      -1.25119554       1.07870875       0.14673165       0.06446758       0.03928152
H        4.27578059      -1.22423307       1.29394398       0.06035330      -0.07366100      -0.35682977      -1.47782688       1.08510307       0.35374117
H        2.94120147      -0.99278655       2.60521688      -0.12087635       0.06908548      -0.26502811       0.02744223      -0.50056750       0.45313643
H        1.58970976      -0.16578201       0.57288664       0.08977462      -0.02964726       0.19583698       0.71407830       0.67717353       0.49838596
H        3.08894860       0.73423858       0.07236119       0.30054232      -0.03317322      -0.03387407      -0.43417667      -0.34197814       0.72831887
9
Properties=species:S:1:pos:R:3:momenta:R:3:forces:R:3 R1=H R2=H R3=CH3 R4=CH3 leaving_group=Cl nucleophile=Cl rxn=sn2 config=rcc label=H_H_CH3_CH3_Cl_Cl_sn2_rcc conformation=0 reactant_id=H_H_CH3_CH3_Cl_none_-_r product_id=H_H_CH3_CH3_none_Cl_sn2_pc mp2_author_energy=-29302.391748605172 mp2_my_energy=0 hash=59123 address=T id=71 energy=-17370.159653042065 pbc="F F F"
C        3.62230983      -0.52182419       1.51716675       0.45268683       0.74786067      -0.27236286      -3.30591333      -1.42809897       1.37428450
C        2.64394034       0.64836868       1.55800360       0.36362141       0.09696324       0.39811193       0.05591468       0.27499354      -1.26386285
H        3.23040740       1.55009179       1.79147121      -0.13189251       0.30201479      -0.08564600      -0.31073719      -0.29202680       0.08220939
F        3.17570638      -1.44204977      -0.21575911       1.10890565       0.87060561       0.36989607      -0.06739715       0.40956284       0.41471006
Cl       4.98208727       0.13087660       3.70222286       0.04347962      -1.79636971       0.75450838      -0.08090186       0.06486574       0.04903020
H        4.56434153      -0.29543882       1.18013471      -0.24372110       0.00482542      -0.15441561       1.94015611       0.06326172      -0.58809275
H        3.36582425      -1.47564320       2.07705102      -0.03613649      -0.15260750      -0.22557688       0.65886898       1.57291314      -0.83863864
H        1.76993118       0.61090641       2.23930735       0.03026401      -0.05522768       0.26156304       0.77635639      -0.48949257      -0.21805586
H        2.25117109       0.77851910       0.50662493       0.16521971      -0.12402541      -0.07033194       0.33365338      -0.17597864       0.98841595
9
Properties=species:S:1:pos:R:3:momenta:R:3:forces:R:3 R1=H R2=H R3=CH3 R4=CH3 leaving_group=Cl nucleophile=Cl rxn=sn2 config=rcc label=H_H_CH3_CH3_Cl_Cl_sn2_rcc conformation=0 reactant_id=H_H_CH3_CH3_Cl_none_-_r product_id=H_H_CH3_CH3_none_Cl_sn2_pc mp2_author_energy=-29302.391748605172 mp2_my_energy=0 hash=59123 address=T id=71 energy=-17370.363218371935 pbc="F F F"
C        4.46076902      -0.03793114       1.64505441       1.19464120       0.37518484       0.28030833       2.12428196       1.60792859      -1.01529000
C        3.09311417       0.49629896       1.95797320       0.39841806       0.02217181       0.87427066       0.48398974      -0.77143139      -1.26224150
H        2.83339133       1.46256276       1.51928771      -0.17010952      -0.05926685      -0.02199783       0.75912035       0.22553456       0.18489561
F        4.19268053      -0.03690978      -0.26360217       0.48411484       1.04035690      -0.68086021       0.12313946       0.15175187       1.16202534
Cl       5.08359677      -0.80773504       4.15763325      -0.68202531      -1.31472025       0.17070453      -0.00051424       0.06168515       0.37802143
H        5.44612213       0.53640297       1.81527288       0.09055725       0.06665365       0.01432160      -2.42232686      -0.58704269      -0.42077144
H        4.69739992      -1.07650768       1.68175089       0.04705404      -0.06583805       0.11238733      -0.62610455      -0.39379760      -0.06760623
H        2.91327809       0.48779474       3.01582865       0.06676389      -0.00563382       0.15817668      -0.31285135      -0.20614341       0.33136915
H        2.47336249      -0.16449106       1.33300782       0.26347908      -0.16126911       0.03528690      -0.12873452      -0.08848507       0.70959764
9
Properties=species:S:1:pos:R:3:momenta:R:3:forces:R:3 R1=H R2=H R3=CH3 R4=CH3 leaving_group=Cl nucleophile=Cl rxn=sn2 config=rcc label=H_H_CH3_CH3_Cl_Cl_sn2_rcc conformation=0 reactant_id=H_H_CH3_CH3_Cl_none_-_r product_id=H_H_CH3_CH3_none_Cl_sn2_pc mp2_author_energy=-29302.391748605172 mp2_my_energy=0 hash=59123 address=T id=71 energy=-17370.51692296801 pbc="F F F"
C        5.15533775       0.19141322       2.00481399       0.22336948       0.11795942      -0.34419120      -0.65310253      -1.92666694      -1.21625681
C        3.65970476       0.28768699       2.14908321       0.28102054      -0.16587821      -0.12476157      -0.09807138      -0.13562844       0.18575940
H        3.37390262       1.25028611       2.60605887       0.39059044       0.06428036       0.09545075       0.23842955      -0.28225786      -0.31470140
F        5.13188259       1.14201193       0.37971550       0.62944309       0.33860880       1.71336032       0.10953514       0.76018527      -0.81919645
Cl       5.08961742      -1.50686541       4.16135080      -0.02247336      -0.55564533      -0.48518267       0.34261022      -0.19317717       0.28933858
H        5.76690956       0.86417977       2.51534953       0.08676356       0.13586136       0.32703371       0.93052533       0.75732303       0.75508784
H        5.65343893      -0.63763436       1.42613877       0.14570558       0.07256606      -0.22428570      -0.88165753       0.84593332       1.15094750
H        3.30398487      -0.50309578       2.81851099      -0.08541578       0.02466545      -0.06933488      -0.19576201       0.19777726      -0.37082742
H        3.19810274       0.22347476       1.15378758      -0.17109161      -0.12177990      -0.06519186       0.20749321      -0.02348848       0.33984875
9
Properties=species:S:1:pos:R:3:momenta:R:3:forces:R:3 R1=H R2=H R3=CH3 R4=CH3 leaving_group=Cl nucleophile=Cl rxn=sn2 config=rcc label=H_H_CH3_CH3_Cl_Cl_sn2_rcc conformation=0 reactant_id=H_H_CH3_CH3_Cl_none_-_r product_id=H_H_CH3_CH3_none_Cl_sn2_pc mp2_author_energy=-29302.391748605172 mp2_my_energy=0 hash=59123 address=T id=71 energy=-17370.468632453903 pbc="F F F"
C        5.72465778       0.30580878       2.59641119       0.06508961      -0.40950843       0.37371145      -2.95378832      -0.06686765       1.62673698
C        4.34890376       0.36222287       2.02057038       0.08672085       0.25125029      -0.39892616      -0.59618040      -0.91051979       0.02617887
H        3.98114064       1.37021520       2.17296437       0.10385479       0.18806107       0.20236334       0.05340478       0.37548302      -0.45830937
F        6.22669211       1.98999697       1.98374528       1.42358166       1.17719090       1.69391010       0.45825100       1.46929894      -0.36431686
Cl       5.20276770      -2.10048948       3.78972220       0.56706335      -1.00203273      -0.16447888       0.00526960      -0.25097112       0.03688938
H        5.80900975       0.33243499       3.66348617      -0.23795029      -0.07212803       0.00261461       0.07840489       0.45375524       0.18999456
H        6.48566089      -0.13432910       2.12250178      -0.05147330      -0.04512347      -0.45579213       2.52470662      -1.62887088      -1.65967522
H        3.69248511      -0.29177596       2.59406981      -0.19765011      -0.08005649      -0.24352982       0.09438979      -0.11109711       0.07648395
H        4.26184384      -0.00853667       0.97465150       0.16400682      -0.12394209       0.06098360       0.33554205       0.66978934       0.52601771
9
Properties=species:S:1:pos:R:3:momenta:R:3:forces:R:3 R1=H R2=H R3=CH3 R4=CH3 leaving_group=Cl nucleophile=Cl rxn=sn2 config=rcc label=H_H_CH3_CH3_Cl_Cl_sn2_rcc conformation=0 reactant_id=H_H_CH3_CH3_Cl_none_-_r product_id=H_H_CH3_CH3_none_Cl_sn2_pc mp2_author_energy=-29302.391748605172 mp2_my_energy=0 hash=59123 address=T id=71 energy=-17370.55380328635 pbc="F F F"
C        6.01702527       0.32022452       3.16330593       0.49887875       0.45153467       0.41717608       1.34876536      -0.01738430      -0.91464771
C        5.17356640       0.65317027       1.95723575       0.09164177       0.28344383       0.02757089      -0.09783782      -0.56195588       0.88430252
H        4.64818303       1.56531411       2.22015676       0.01544631       0.06198142       0.02077937       0.02577281       0.37846812      -0.32261293
F        6.83841166       2.03764279       3.43533283       0.07205758      -0.65073035       0.73108498      -0.62516481      -0.90508395      -0.17046420
Cl       5.37201247      -2.30973612       3.35979908       0.17205858      -0.45450018      -0.36185291      -0.15768594      -0.26596643      -0.11613128
H        5.53261917       0.10439129       4.07180671       0.07309124       0.07650601      -0.24543766      -0.50875478       0.35608261       0.87879745
H        6.94653241      -0.25650645       3.07838447      -0.11315617       0.19172404       0.04201079      -0.57657049       0.67462949      -0.27344631
H        4.43252063      -0.11325742       1.71776877       0.01353702      -0.02423247      -0.07493838       0.11510574      -0.13424399       0.46853957
H        5.76919774       0.74117139       1.07035207       0.15368198       0.00518434      -0.01227052       0.47636992       0.47545431      -0.43433711
9
Properties=species:S:1:pos:R:3:momenta:R:3:forces:R:3 R1=H R2=H R3=CH3 R4=CH3 leaving_group=Cl nucleophile=Cl rxn=sn2 config=rcc label=H_H_CH3_CH3_Cl_Cl_sn2_rcc conformation=0 reactant_id=H_H_CH3_CH3_Cl_none_-_r product_id=H_H_CH3_CH3_none_Cl_sn2_pc mp2_author_energy=-29302.391748605172 mp2_my_energy=0 hash=59123 address=T id=71 energy=-17370.46990171561 pbc="F F F"
C        6.50192738       0.12714327       3.85957562       0.71569483      -0.39385387       0.52632913      -2.14103063       1.21656977       1.49563877
C        6.65612714       0.84079556       2.56170493       0.76609334      -0.10274463       0.93665053       0.69285559      -1.56250915      -0.77891651
H        6.21822138       1.80930406       2.50263263       0.14442072       0.12580961      -0.10834085      -0.20138290       0.93793180       0.61111907
F        7.12015192       1.57338109       4.96381952       0.02046737       0.35378547       0.77119549      -0.39013835      -0.47619367      -0.47328026
Cl       5.62506299      -2.14545507       2.69871339       0.08754037       0.48674187      -1.53939963      -0.09273857      -0.25433555      -0.11408627
H        5.43027626       0.02529772       4.26625634       0.11530142      -0.33513817       0.13195349       2.08434924       0.23201564      -0.65087390
H        7.25128287      -0.47897625       4.32814396      -0.11459855      -0.26414018       0.09231900       0.14236013      -0.17834826      -0.37573694
H        6.18964705       0.26913787       1.77094330      -0.05697817      -0.10374752       0.12500845      -0.43980313      -0.36555356      -0.03419763
H        7.69342937       0.84757883       2.23432786       0.16517583       0.12184328       0.09052646       0.34552862       0.45042296       0.32033367
9
Properties=species:S:1:pos:R:3:momenta:R:3:forces:R:3 R1=H R2=H R3=CH3 R4=CH3 leaving_group=Cl nucleophile=Cl rxn=sn2 config=rcc label=H_H_CH3_CH3_Cl_Cl_sn2_rcc conformation=0 reactant_id=H_H_CH3_CH3_Cl_none_-_r product_id=H_H_CH3_CH3_none_Cl_sn2_pc mp2_author_energy=-29302.391748605172 mp2_my_energy=0 hash=59123 address=T id=71 energy=-17370.46466566615 pbc="F F F"
C        6.98228187      -0.26690365       4.49197756      -0.15074821      -0.98327076      -0.45112588       0.54095923      -1.67972366       0.55217788
C        8.04731429       0.46097933       3.70884247       1.12499090      -0.50642809       0.42397577      -2.50756340       1.23397283       0.22737935
H        7.89994372       1.54181675       3.85097389       0.19617549      -0.06788843       0.27585710      -0.36825674      -0.17808146       0.14530884
F        7.25300366       0.68589842       6.11463802       0.16499053      -0.16514218       1.67535352       0.06360734      -0.07642145      -0.18928277
Cl       6.12323949      -1.44395726       2.09177027       0.93014248       1.19999304      -1.15196095       0.06376806       0.06714641       0.33564683
H        5.94415472      -0.02127413       4.40290925      -0.24430776       0.13803935       0.36881082      -0.02217516       0.30414859      -0.26806286
H        7.15248945      -1.27723119       4.99598194       0.06474176       0.03317750       0.05730255       0.09721673       1.77592379      -1.06708810
H        7.94616902       0.29747179       2.65242427       0.00087901       0.08956713      -0.02008228       0.22435195      -0.50586417      -0.33902010
H        9.00198129       0.33758196       4.09122924       0.00458497       0.13549289      -0.01361806       1.90809200      -0.94110088       0.60294093
9
Properties=species:S:1:pos:R:3:momenta:R:3:forces:R:3 R1=H R2=H R3=CH3 R4=CH3 leaving_group=Cl nucleophile=Cl rxn=sn2 config=rcc label=H_H_CH3_CH3_Cl_Cl_sn2_rcc conformation=0 reactant_id=H_H_CH3_CH3_Cl_none_-_r product_id=H_H_CH3_CH3_none_Cl_sn2_pc mp2_author_energy=-29302.391748605172 mp2_my_energy=0 hash=59123 address=T id=71 energy=-17370.47223044566 pbc="F F F"
C        7.29746774      -0.59431011       4.73118643      -0.19707706       0.37491466       1.30063077       0.54781459       1.20743180       0.13321348
C        8.82068972      -0.37060226       4.62830157       0.46597392       0.03079630       0.41712202      -1.69288396      -0.97925002       0.26922554
H        9.02150131       0.33009878       5.39434687       0.13985654      -0.04906615      -0.09878252       0.19275117       1.19237941       0.66180185
F        7.28794099      -0.42853550       6.63403874       0.08811576      -1.14564629       0.20837391      -0.00020724      -0.05904880      -0.46562429
Cl       6.90398224      -0.43669402       2.02447089       1.16804082       1.41390688      -0.57886623       0.08028596      -0.09194584      -0.08035550
H        6.52025953       0.12568661       4.47800058       0.00664730       0.03607303      -0.10924221       1.06917513       0.27108616       0.26511847
H        6.87518839      -1.54868145       4.73149743       0.04853104      -0.27291215      -0.24257873       0.00263623      -1.35098275      -0.02265866