9
Properties=species:S:1:pos:R:3:momenta:R:3:forces:R:3 R1=H R2=H R3=CH3 R4=CH3 leaving_group=Cl nucleophile=Cl rxn=sn2 config=rcc label=H_H_CH3_CH3_Cl_Cl_sn2_rcc conformation=0 reactant_id=H_H_CH3_CH3_Cl_none_-_r product_id=H_H_CH3_CH3_none_Cl_sn2_pc mp2_author_energy=-29302.391748605172 mp2_my_energy=0 hash=59123 address=T id=71 energy=-17370.412368016237 pbc="F F F"
C        0.12542541       0.11270554      -0.00029240      -1.23119505      -0.40989902       0.63977930      -0.09214561       1.11788396      -0.00082481
C        1.62503867       0.00847468       0.00156754       0.16751223      -0.58975707       0.06213586      -0.06338950      -0.85342640       0.00215309
H        1.99473018      -0.50605055       0.89354482       0.00548199      -0.03131627      -0.15552176       0.00320508       0.00300841       0.00517082
F        0.89788639       2.64149152      -0.00442372      -0.22695043      -0.07441573      -1.47208646      -0.23271315      -0.10403772      -0.00076135
Cl      -0.69504884      -1.53494042       0.00509220      -1.15228287       0.47153320       0.06470244       0.38207948      -0.16174994      -0.00050876
H       -0.22306082       0.64592326      -0.87549887      -0.14625826      -0.03206061      -0.20056298      -0.00302890      -0.00293595      -0.00472561
H       -0.22431889       0.65275656       0.87018381      -0.10493420      -0.11516273       0.05765858      -0.00396382      -0.00350204       0.00469305
H        1.88822962       1.08069343      -0.00059746       0.04227087       0.01461663       0.03078183       0.00778691       0.00253743      -0.00033365
H        1.99700981      -0.51031959      -0.88698835      -0.00415862       0.32017172      -0.04747097       0.00216950       0.00222225      -0.00486279
9
Properties=species:S:1:pos:R:3:momenta:R:3:forces:R:3 R1=H R2=H R3=CH3 R4=CH3 leaving_group=Cl nucleophile=Cl rxn=sn2 config=rcc label=H_H_CH3_CH3_Cl_Cl_sn2_rcc conformation=0 reactant_id=H_H_CH3_CH3_Cl_none_-_r product_id=H_H_CH3_CH3_none_Cl_sn2_pc mp2_author_energy=-29302.391748605172 mp2_my_energy=0 hash=59123 address=T id=71 energy=-17370.238048485862 pbc="F F F"
C       -0.73132118       0.02486669      -0.32938975       0.07819310      -0.44281876      -0.24698203      -0.27809517       0.56958132       1.30339876
C        0.69368864      -0.49167727      -0.36696959      -0.51425442       1.04601229      -0.74209530      -0.70985131      -0.15618609       0.01918436
H        0.94831502      -1.00660232       0.57905332      -0.03329045       0.14334050       0.01507614      -0.08731422      -0.02112793      -0.66741401
F        0.17404142       2.12078602      -1.66911434      -0.81741633      -1.65924086      -0.94617939      -0.06680710      -0.53917442       0.47465680
Cl      -1.83708364      -1.38161650       0.31932026      -2.81488859       0.39988885       0.59037711       0.55218651       0.25160357      -0.25493372
H       -1.13160617       0.31221137      -1.29105486       0.05102962       0.01083526      -0.09843798       0.15724796       0.26050309       0.20742823
H       -0.85442646       0.79733745       0.47436942       0.21288117      -0.10022436      -0.05058124       0.10186313      -0.54829465      -1.39243587
H        1.28666172       0.41586471      -0.45564880      -0.06850349       0.04563073      -0.03396293       0.01798105       0.19751675      -0.32288353
H        0.80449348      -1.11240534      -1.27735145      -0.14455910      -0.12549308      -0.04698370       0.31278914      -0.01442165       0.63299898
9
Properties=species:S:1:pos:R:3:momenta:R:3:forces:R:3 R1=H R2=H R3=CH3 R4=CH3 leaving_group=Cl nucleophile=Cl rxn=sn2 config=rcc label=H_H_CH3_CH3_Cl_Cl_sn2_rcc conformation=0 reactant_id=H_H_CH3_CH3_Cl_none_-_r product_id=H_H_CH3_CH3_none_Cl_sn2_pc mp2_author_energy=-29302.391748605172 mp2_my_energy=0 hash=59123 address=T id=71 energy=-17370.248234670355 pbc="F F F"
C       -1.79631908      -0.08671166      -0.85851303      -0.39492654      -0.56719537      -0.62970256      -0.47465080      -1.12541469       1.88862438
C       -0.52794946      -0.88221804      -0.79339815      -0.48686420      -0.42221208      -0.07954682       0.96526701       1.11533370      -0.83596551
H       -0.00406686      -0.59566554       0.11017487       0.12370846       0.01110516      -0.01869785       0.26682757      -0.18493808       0.22113989
F       -0.72781011       1.00854607      -2.96379788      -0.87396321      -0.46442494      -1.17220573       0.58977291       0.60513868      -1.11385387
Cl      -2.75774770      -0.96191205       0.51713818      -1.79258322       1.04035951       0.35084589      -0.36615463       0.58084302      -0.51696534
H       -2.21393644      -0.09699047      -1.86365701      -0.06104211       0.06997862       0.22231642      -0.36867870      -0.04819987       0.35715948
H       -1.64268498       0.94442969      -0.52287323      -0.11328798      -0.03757467      -0.06315296      -0.16566645      -0.40588061      -0.30648022
H        0.03785129      -0.54577606      -1.67709160      -0.07889993      -0.13224489      -0.16860315      -0.12571700       0.04633241       0.26827293
H       -0.65887955      -1.94755231      -0.82156414       0.12732487      -0.09562524       0.19160887      -0.32099989      -0.58321457       0.03806828
9
Properties=species:S:1:pos:R:3:momenta:R:3:forces:R:3 R1=H R2=H R3=CH3 R4=CH3 leaving_group=Cl nucleophile=Cl rxn=sn2 config=rcc label=H_H_CH3_CH3_Cl_Cl_sn2_rcc conformation=0 reactant_id=H_H_CH3_CH3_Cl_none_-_r product_id=H_H_CH3_CH3_none_Cl_sn2_pc mp2_author_energy=-29302.391748605172 mp2_my_energy=0 hash=59123 address=T id=71 energy=-17370.230710630956 pbc="F F F"
C       -3.06737383      -0.53183494      -1.40454110      -0.76344382      -0.46431676      -0.51276754       0.09278313       0.20649426      -0.84834146
C       -1.83931955      -1.31525398      -1.15681729      -1.37444657      -0.45800709       0.28113417       0.74135916      -0.30239300      -0.09968149
H       -1.01170708      -0.63788703      -0.91360119      -0.30933793       0.08497895      -0.03042559      -0.20528951      -0.09389027       0.24217633
F       -2.28722271      -0.59808284      -3.83474558      -1.19423828      -1.41580400      -0.79753414      -0.32475002      -0.07783009       0.89307082
Cl      -3.64559965      -0.19453819       0.28542010      -0.51939961       1.40634592      -0.46230160      -0.92188491       0.33662827       1.19163900
H       -3.86434654      -1.05227641      -1.94999299       0.07078820       0.10681730      -0.19005483       0.55020990       0.43205400       0.07717674
H       -2.78368561       0.41995258      -1.79520738      -0.46018715      -0.13761425      -0.02542833      -0.35945951       0.24183170      -0.85177054
H       -1.62250180      -1.68834220      -2.14664558      -0.01749452       0.11305127       0.01361005       0.16791170      -0.45085426      -0.34418270
H       -1.97604273      -2.05417245      -0.36643835       0.00348951      -0.00397673      -0.03371064       0.25912005      -0.29204062      -0.26008670
9
Properties=species:S:1:pos:R:3:momenta:R:3:forces:R:3 R1=H R2=H R3=CH3 R4=CH3 leaving_group=Cl nucleophile=Cl rxn=sn2 config=rcc label=H_H_CH3_CH3_Cl_Cl_sn2_rcc conformation=0 reactant_id=H_H_CH3_CH3_Cl_none_-_r product_id=H_H_CH3_CH3_none_Cl_sn2_pc mp2_author_energy=-29302.391748605172 mp2_my_energy=0 hash=59123 address=T id=71 energy=-17370.335380687528 pbc="F F F"
C       -4.31184782      -0.85680918      -1.92773979      -1.29652780       0.35674408       0.22925602      -0.28383677       0.16808401       0.17873926
C       -3.31992872      -1.82456311      -1.39467290      -0.27622751       0.12494097      -0.13434076       0.48887108       0.14180331       0.90253376
H       -2.40011162      -1.25073346      -1.17345891      -0.16081214       0.15574562       0.39138712      -0.13611701      -0.65597614      -0.01127320
F       -4.52642902      -2.30756815      -3.87145371      -1.89100576      -1.19930197       0.03933599       0.11526555       0.00694723       0.17828924
Cl      -4.47960259       0.55268831      -0.60990401      -0.38420224      -0.35915272      -2.35178763       0.16485119      -0.50777163      -0.39729770
H       -5.28859599      -1.30239041      -2.01858814      -0.22263900       0.25215795      -0.23627096      -0.10783288       0.32205393      -0.37648562
H       -3.88799514      -0.44257323      -2.82927681      -0.00928059      -0.18523419       0.29794453      -0.61483063       0.37776531      -0.12263640
H       -3.23603472      -2.50558505      -2.23941399       0.03542737       0.05025784       0.09398943       0.17246830      -0.13306151      -0.09621421
H       -3.66968395      -2.35832830      -0.49266215      -0.06980994       0.08401088       0.02436183       0.20116117       0.28015550      -0.25565512
9
Properties=species:S:1:pos:R:3:momenta:R:3:forces:R:3 R1=H R2=H R3=CH3 R4=CH3 leaving_group=Cl nucleophile=Cl rxn=sn2 config=rcc label=H_H_CH3_CH3_Cl_Cl_sn2_rcc conformation=0 reactant_id=H_H_CH3_CH3_Cl_none_-_r product_id=H_H_CH3_CH3_none_Cl_sn2_pc mp2_author_energy=-29302.391748605172 mp2_my_energy=0 hash=59123 address=T id=71 energy=-17370.14775776629 pbc="F F F"
C       -5.37176702      -1.06965567      -2.23812184      -1.22215053      -0.22926121      -0.86137137       1.54319663      -0.55772193      -0.26536238
C       -4.53519166      -2.08039359      -1.41729721      -0.64131676      -0.61216471       0.80811160       0.16784055       1.27164038      -0.31378126
H       -3.47789807      -1.76548404      -1.29998937      -0.01404676       0.15773170      -0.28321322      -0.47986686      -0.06716516      -0.31348451
F       -6.08157952      -3.02616157      -3.30015443      -1.24472880       0.26729736       0.57660836      -0.07652926       0.27183023      -0.02521622
Cl      -4.96677305       0.74966863      -1.66289434      -0.83574769      -0.22669634      -2.22466244       0.04096916      -0.13697621       0.64017427
H       -6.42550175      -1.17213743      -2.09020020      -0.05286721      -0.02492668       0.09225676      -0.26032616      -0.05184178      -0.38551889
H       -4.96448935      -0.95601492      -3.24728183       0.02851600       0.05733550       0.14643548      -0.82203099      -0.52556015       0.31241440
H       -4.68070341      -2.93340639      -2.11279834       0.04115977       0.09654151       0.12176396       0.04522560      -0.07037599       0.75967399
H       -4.92802197      -2.22599161      -0.40079206       0.13308142      -0.12705974       0.15775656      -0.15847867      -0.13382939      -0.40889942
9
Properties=species:S:1:pos:R:3:momenta:R:3:forces:R:3 R1=H R2=H R3=CH3 R4=CH3 leaving_group=Cl nucleophile=Cl rxn=sn2 config=rcc label=H_H_CH3_CH3_Cl_Cl_sn2_rcc conformation=0 reactant_id=H_H_CH3_CH3_Cl_none_-_r product_id=H_H_CH3_CH3_none_Cl_sn2_pc mp2_author_energy=-29302.391748605172 mp2_my_energy=0 hash=59123 address=T id=71 energy=-17370.214641547856 pbc="F F F"
C       -6.48149450      -1.28933658      -2.54908634      -1.47983827      -0.10255693      -0.08132269       0.02715786      -0.39157061      -0.96641951
C       -5.69891677      -1.83636453      -1.39623542      -0.33219396      -0.72880095      -0.01322631      -0.69184285      -1.07572178       0.23077667
H       -4.68160730      -2.01741697      -1.74962705      -0.10334484      -0.15021145      -0.04935569       0.11649283       0.23225406       0.43010533
F       -7.58537955      -3.23291334      -2.57288091      -0.78062400       0.38625673       0.78556650      -0.03828939       0.25094005      -0.06902858
Cl      -5.53874279       0.45868126      -2.83967726      -0.57561131       0.38235526      -1.84325502      -0.26618999       0.12449460      -0.07711502
H       -7.52697612      -1.05507358      -2.46578979      -0.06287375      -0.07628038      -0.22288542       0.06672795       0.23483589       0.57466575
H       -6.35320126      -1.79267497      -3.51045036       0.34722085      -0.27019528       0.19058189       0.31124359       0.23015953       0.66109063
H       -6.20147709      -2.81084044      -1.26721447       0.06932573       0.08199018       0.12665972       0.27360034       0.31057203       0.04827777
H       -5.75901458      -1.27539681      -0.44292244      -0.14919924      -0.03899768      -0.07376893       0.20109965       0.08403623      -0.83235305
9
Properties=species:S:1:pos:R:3:momenta:R:3:forces:R:3 R1=H R2=H R3=CH3 R4=CH3 leaving_group=Cl nucleophile=Cl rxn=sn2 config=rcc label=H_H_CH3_CH3_Cl_Cl_sn2_rcc conformation=0 reactant_id=H_H_CH3_CH3_Cl_none_-_r product_id=H_H_CH3_CH3_none_Cl_sn2_pc mp2_author_energy=-29302.391748605172 mp2_my_energy=0 hash=59123 address=T id=71 energy=-17370.075500548322 pbc="F F F"
C       -7.31748342      -1.47508027      -2.75655151      -0.10425917      -0.12367896      -0.45281062      -0.66866646      -2.33798510      -0.45313898
C       -6.56462037      -1.53331505      -1.47714483      -1.12920147      -0.00014548      -0.32214895      -0.41713022      -0.42043639       0.49178539
H       -5.55548643      -1.89024483      -1.64447355      -0.15539306       0.01083273       0.00519590       0.36308924       0.43342040      -0.20262141
F       -8.69046730      -2.97250426      -2.00792384      -0.29997722       0.73192287       0.83537184       1.17730640       1.26420127      -0.68708206
Cl      -6.16962311      -0.05948358      -3.77348205      -1.08002209      -0.95405960      -0.93787592      -0.26898422      -0.04005974       0.02482082
H       -8.33966069      -1.21197786      -2.90629853       0.01398293      -0.20964514       0.00021238      -0.02975418       0.77056685       0.60145688
H       -7.13473353      -2.33330513      -3.38919795      -0.12108898      -0.00786026       0.05647955       0.15684842       0.22190016       0.04750732
H       -7.05456071      -2.33204596      -0.94579331      -0.07265993       0.07691553      -0.26328786      -0.42162072      -0.09355931       0.29531074
H       -6.58511807      -0.62192228      -0.88920964       0.06218447      -0.01029547      -0.03256188       0.10891173       0.20195186      -0.11803870
9
Properties=species:S:1:pos:R:3:momenta:R:3:forces:R:3 R1=H R2=H R3=CH3 R4=CH3 leaving_group=Cl nucleophile=Cl rxn=sn2 config=rcc label=H_H_CH3_CH3_Cl_Cl_sn2_rcc conformation=0 reactant_id=H_H_CH3_CH3_Cl_none_-_r product_id=H_H_CH3_CH3_none_Cl_sn2_pc mp2_author_energy=-29302.391748605172 mp2_my_energy=0 hash=59123 address=T id=71 energy=-17370.190612688464 pbc="F F F"
C       -8.15194672      -1.63590873      -2.85835363       0.37214310       0.09179902       0.05115883      -0.07585241       0.63381181      -1.65271563
C       -7.35334849      -1.11205118      -1.70652523      -0.86204920      -0.65184235      -0.37239898       0.86257930      -0.77524309      -1.78121628
H       -6.40407307      -1.62681122      -1.85296545       0.12707346       0.27499121       0.20977172       0.20710368       0.15859574       0.62189086
F       -9.45116896      -2.50600176      -1.69902749      -0.41729524       0.60235672       0.30195686      -1.16426772      -0.89707791       1.06337743
Cl      -6.87875981      -0.73881653      -4.47363353      -1.11225885      -1.01241227      -1.22388891       0.41251368       0.30238078      -0.38928195
H       -9.01274623      -1.15490180      -3.28255405      -0.06618623       0.00160217       0.27219986       0.18234377       0.33308496       0.32339673
H       -7.96345262      -2.59358809      -3.31387952      -0.36231179       0.01086168      -0.02976130       0.22884908       0.06040569       0.48897232
H       -7.88337008      -1.46727183      -0.87103775      -0.23917827       0.18898954      -0.08043080      -0.39732561      -0.15906708       1.37187199
H       -7.15349374      -0.05249092      -1.72088641      -0.13318335       0.04016924      -0.16564546      -0.25594377       0.34310911      -0.04629547
9
Properties=species:S:1:pos:R:3:momenta:R:3:forces:R:3 R1=H R2=H R3=CH3 R4=CH3 leaving_group=Cl nucleophile=Cl rxn=sn2 config=rcc label=H_H_CH3_CH3_Cl_Cl_sn2_rcc conformation=0 reactant_id=H_H_CH3_CH3_Cl_none_-_r product_id=H_H_CH3_CH3_none_Cl_sn2_pc mp2_author_energy=-29302.391748605172 mp2_my_energy=0 hash=59123 address=T id=71 energy=-17370.239078334915 pbc="F F F"
C       -8.97253141      -1.67109136      -2.99068802      -0.54839420       0.24057187       0.43645583      -2.57013463      -1.28338372       0.55789906
C       -8.14641797      -0.71984786      -2.25584275      -0.15271161       0.26716184      -0.46543717       1.61222634       0.77752358      -1.63196730
H       -7.06223521      -0.90122938      -2.21746994       0.07892138      -0.03596863       0.25984185      -0.49243298      -0.42626269      -0.03361661
F      -10.12683038      -1.92430854      -1.51366616      -0.65453990       0.38529562      -0.22202279       0.37689157      -0.14053188      -0.48879900
Cl      -7.72217692      -1.52963618      -5.00744909      -1.42068180      -1.46230782      -1.18879689      -0.00368417       0.10633322      -0.00661211
H       -9.88928591      -1.35875384      -3.45816751      -0.11937583      -0.09527895       0.16087623       0.42325589       0.64198553      -0.41641576
H       -8.89431476      -2.71812761      -3.14110791      -0.05723215       0.05916766      -0.07417373       0.94626644      -0.41219363       0.44534597
H       -8.56840214      -0.57230707      -1.30263994      -0.01693143       0.16928544       0.15219672      -0.42418701       0.19593088       1.17289227
H       -8.24456907       0.15932970      -2.88139813      -0.22276311      -0.05220890      -0.25787781       0.13179856       0.54059872       0.40127347
9
Properties=species:S:1:pos:R:3:momenta:R:3:forces:R:3 R1=H R2=H R3=CH3 R4=CH3 leaving_group=Cl nucleophile=Cl rxn=sn2 config=rcc label=H_H_CH3_CH3_Cl_Cl_sn2_rcc conformation=0 reactant_id=H_H_CH3_CH3_Cl_none_-_r product_id=H_H_CH3_CH3_none_Cl_sn2_pc mp2_author_energy=-29302.391748605172 mp2_my_energy=0 hash=59123 address=T id=71 energy=-17370.681169851872 pbc="F F F"
C       -9.83626524      -1.56252331      -3.09163776      -0.24047744      -0.23163326      -0.68607853      -1.90064202      -1.05628667       1.32743307
C       -8.97597060      -0.37025165      -3.09337479      -1.12957943       0.19982338      -1.00702642      -1.54207438       1.05472774      -0.00514718
H       -8.18320225      -0.45760180      -2.35055062      -0.05063969      -0.16075673       0.21087181       0.12115704       0.15507228      -0.24982099
F      -10.68940140      -1.27399214      -1.54850263      -0.83141608       0.69682839       0.87138624       1.32524548      -0.41226235      -2.13828902
Cl      -8.76343384      -2.40341092      -5.37011431      -1.77528829      -1.31895724      -0.51166102      -0.30067031       0.05794373       0.37209642
H      -10.72813894      -1.66709576      -3.69541081       0.03749177      -0.19990278      -0.11667812       0.15481985       0.78898335      -0.14859048
H       -9.48040924      -2.55745082      -2.95619156       0.13353339       0.05409944       0.05262368       0.63651770      -0.17740995       0.61288155
H       -9.68308379       0.45579521      -2.81340580       0.30262703       0.33347842      -0.11849826       0.81320648      -0.53527816       0.09137521
H       -8.66851758      -0.18787237      -4.11653159       0.23138531       0.06760551       0.02578007       0.69244016       0.12451002       0.13806142
9
Properties=species:S:1:pos:R:3:momenta:R:3:forces:R:3 R1=H R2=H R3=CH3 R4=CH3 leaving_group=Cl nucleophile=Cl rxn=sn2 config=rcc label=H_H_CH3_CH3_Cl_Cl_sn2_rcc conformation=0 reactant_id=H_H_CH3_CH3_Cl_none_-_r product_id=H_H_CH3_CH3_none_Cl_sn2_pc mp2_author_energy=-29302.391748605172 mp2_my_energy=0 hash=59123 address=T id=71 energy=-17370.77655545847 pbc="F F F"
C      -10.48610780      -1.47379507      -3.44702275      -0.26055663      -1.13145824      -0.26044837      -1.64778111      -1.03674363       0.62353663
C       -9.81785439      -0.32318421      -4.06835994      -0.52827706       0.34502915      -0.31382163       1.53580068       0.17723033      -0.04661441
H       -8.78382733      -0.35767614      -3.63652771      -0.02434205       0.00909283      -0.17884412      -0.70736504       0.69243055      -0.19985677
F      -11.04163254      -0.74311162      -1.96175213      -0.11945610       1.00167491      -0.73988377       0.09783892       0.32682310      -0.23667996
Cl      -9.86759367      -3.05866162      -5.33456630      -1.84259094      -0.53515779       0.37752634       0.05537660      -0.08552518      -0.10258958
H      -11.45982840      -1.84723135      -3.74437792      -0.17523735       0.25804801      -0.10427639       0.30731435       0.42953433      -0.28732027
H       -9.94434348      -2.21368240      -2.91079354       0.13096281      -0.12055029      -0.08983786       0.60612135      -0.38047544      -0.07777088
H      -10.37134991       0.57491347      -3.78774005      -0.31296485      -0.00093950       0.18816717       0.21015171       0.00801675       0.06265776
H       -9.65337483      -0.38354793      -5.15043411       0.06557614      -0.34213703      -0.05949001      -0.45745744      -0.13129082       0.26463749
9
Properties=species:S:1:pos:R:3:momenta:R:3:forces:R:3 R1=H R2=H R3=CH3 R4=CH3 leaving_group=Cl nucleophile=Cl rxn=sn2 config=rcc label=H_H_CH3_CH3_Cl_Cl_sn2_rcc conformation=0 reactant_id=H_H_CH3_CH3_Cl_none_-_r product_id=H_H_CH3_CH3_none_Cl_sn2_pc mp2_author_energy=-29302.391748605172 mp2_my_energy=0 hash=59123 address=T id=71 energy=-17370.714164290534 pbc="F F F"
C      -11.13655925      -1.44581952      -3.84525893      -0.76049023      -0.58858405      -0.25168503      -0.28609255       0.09369114       0.95147993
C      -10.79502537      -0.51475014      -4.94118408      -0.03437680       0.25162670      -0.34334763       0.19144630       1.32171426      -1.53215287
H       -9.75783073      -0.35824539      -5.25195072      -0.04262244       0.16567595      -0.45375188       0.24190041      -0.51111012       0.74638490
F      -11.31481353      -0.19971103      -2.62509204      -0.12620215       0.39169968      -0.23954150      -0.12308690      -0.56731524      -0.06855161
Cl     -11.01907158      -3.61720005      -5.20253288      -1.54396977      -1.06312465       0.22047432       0.12180835       0.02156394      -0.20778103
H      -12.14004282      -1.84845809      -3.94166496      -0.05504459       0.22162051      -0.12527713       0.17320769       0.16451351       0.60072923
H      -10.42526178      -2.04769455      -3.29634483      -0.07360490       0.17949612       0.09844769      -0.08188479       0.26843027      -0.39910755
H      -11.16299349       0.50162512      -4.63786653      -0.00314673       0.06202202      -0.18011007       0.02408105      -0.86615922      -0.35790699
H      -11.24964852      -0.83668065      -5.88250867      -0.20079613      -0.09867020       0.18114766      -0.26137957       0.07467147       0.26690599
9
Properties=species:S:1:pos:R:3:momenta:R:3:forces:R:3 R1=H R2=H R3=CH3 R4=CH3 leaving_group=Cl nucleophile=Cl rxn=sn2 config=rcc label=H_H_CH3_CH3_Cl_Cl_sn2_rcc conformation=0 reactant_id=H_H_CH3_CH3_Cl_none_-_r product_id=H_H_CH3_CH3_none_Cl_sn2_pc mp2_author_energy=-29302.391748605172 mp2_my_energy=0 hash=59123 address=T id=71 energy=-17370.605077205593 pbc="F F F"
C      -11.80969439      -1.41322694      -4.23202335      -0.60111450       0.02691056      -0.74914520       0.28512298       0.16092265      -1.18612344
C      -11.87189402      -1.06708763      -5.72312696      -0.89789548      -0.75138347      -0.48227255       0.54795371       0.73669669       1.73785993
H      -12.46598849      -1.88112622      -6.07168821      -0.16051875      -0.19366710      -0.00873626      -0.61113421       0.22092283      -1.24235109
F      -11.57669230       0.16749332      -3.55217256       0.04262515       0.17391463      -0.13022375       0.17457211      -0.30586625      -0.26347976
Cl     -12.11409771      -3.91006553      -4.98836163      -1.77585233       0.35955684       0.46660503      -0.03317122      -0.48368359       0.44404873
H      -12.78733793      -1.56829524      -3.83211218      -0.11375024      -0.04414837      -0.05943603      -0.08129539      -0.50515049       0.41421944
H      -10.98123842      -2.01141358      -3.88420667       0.22035090       0.17507351      -0.07859607      -0.19974836       0.46021754       0.37744276
H      -10.87065156      -1.10826194      -6.18817896      -0.00051852      -0.22810023       0.07942905      -0.51768666       0.31749334       0.08475548
H      -12.36499555      -0.07221920      -5.74842841      -0.02186964      -0.07524424      -0.31158337       0.43538706      -0.60155272      -0.36637207
9
Properties=species:S:1:pos:R:3:momenta:R:3:forces:R:3 R1=H R2=H R3=CH3 R4=CH3 leaving_group=Cl nucleophile=Cl rxn=sn2 config=rcc label=H_H_CH3_CH3_Cl_Cl_sn2_rcc conformation=0 reactant_id=H_H_CH3_CH3_Cl_none_-_r product_id=H_H_CH3_CH3_none_Cl_sn2_pc mp2_author_energy=-29302.391748605172 mp2_my_energy=0 hash=59123 address=T id=71 energy=-17370.669421138446 pbc="F F F"
C      -12.55238925      -1.54188817      -5.00721458      -1.29089602      -0.21989030      -0.66521750      -0.78239008       0.43436388       0.13826187
C      -13.24426567      -1.52850851      -6.34861380       0.01296616       0.77919021       0.45174366       0.44659402      -0.00607122      -1.45084314
H      -13.65993871      -0.55286562      -6.65829936      -0.00054818      -0.03450641       0.18730429       0.18096526      -0.31076357       0.58715569
F      -11.89363055       0.07351743      -4.81072116      -0.75338755      -1.23805764      -2.27143225      -0.40059868      -1.02480621      -0.62970758
Cl     -13.32352117      -3.99301019      -4.60085481      -1.80846928       0.42669648       0.61631341       0.08049962       0.04405477       0.07078746
H      -13.17252953      -1.46952115      -4.12002141      -0.00846294      -0.12793464      -0.06310665       0.40809467      -0.33201122      -0.17904956
H      -11.64720764      -2.13023289      -5.03276505      -0.29658479      -0.10720650      -0.07151505       0.03528625       0.21778037       0.66707409
H      -13.99482438      -2.33359095      -6.53030531       0.12311156      -0.12592865       0.23761631       0.48702679       0.69964648       0.68783895
H      -12.43928474      -1.76333355      -7.07874447       0.07593910      -0.01684036       0.05875329      -0.45547786       0.27780672       0.10848223
9
Properties=species:S:1:pos:R:3:momenta:R:3:forces:R:3 R1=H R2=H R3=CH3 R4=CH3 leaving_group=Cl nucleophile=Cl rxn=sn2 config=rcc label=H_H_CH3_CH3_Cl_Cl_sn2_rcc conformation=0 reactant_id=H_H_CH3_CH3_Cl_none_-_r product_id=H_H_CH3_CH3_none_Cl_sn2_pc mp2_author_energy=-29302.391748605172 mp2_my_energy=0 hash=59123 address=T id=71 energy=-17370.78624470262 pbc="F F F"
C      -13.36293346      -1.96789873      -5.73505669      -0.23231963      -0.72666668      -0.50389188       0.95628145       0.02355727      -0.16352353
C      -14.38980076      -1.86026853      -6.79149714      -0.67349430      -0.12568888      -0.24926957      -0.09927630       0.60133921      -0.97770225
H      -15.07882828      -2.70039645      -6.84866271      -0.12001533       0.07271437      -0.32798123      -0.00753761       0.14684474       0.09012629
F      -12.42914063      -0.60800111      -6.30015093      -0.48470126      -0.22097907      -0.95090880       0.12136959      -0.32393171       0.05928642
Cl     -14.50569562      -3.71517627      -4.21626464      -1.27200448       0.50097024       0.57087284      -0.13712473      -0.17616484      -0.23376620
H      -13.53439419      -1.58397660      -4.75827440       0.02463708       0.08834549      -0.05357086      -0.11563927       0.22106967       0.27748722
H      -12.66304584      -2.78913233      -5.79058234       0.08293085      -0.15160727       0.34806235       0.10995646       0.19716156       0.05754591
H      -13.89163221      -1.65150967      -7.78074977      -0.08250213       0.17460284       0.00499787      -0.22893682      -0.62477482       0.89512554
H      -14.87635682      -0.90953376      -6.59051869       0.07148650      -0.06395301       0.12744799      -0.59909277      -0.06510108      -0.00457941
9
Properties=species:S:1:pos:R:3:momenta:R:3:forces:R:3 R1=H R2=H R3=CH3 R4=CH3 leaving_group=Cl nucleophile=Cl rxn=sn2 config=rcc label=H_H_CH3_CH3_Cl_Cl_sn2_rcc conformation=0 reactant_id=H_H_CH3_CH3_Cl_none_-_r product_id=H_H_CH3_CH3_none_Cl_sn2_pc mp2_author_energy=-29302.391748605172 mp2_my_energy=0 hash=59123 address=T id=71 energy=-17370.733759931903 pbc="F F F"
C      -14.26837699      -2.25903229      -6.22432522      -0.15229549      -0.75169303      -0.37354089       0.91349151       1.13023841       0.74769648
C      -15.48777918      -2.39672580      -7.00072523      -1.99735470      -0.54197337      -0.34351784      -0.48196090       0.15174221      -0.95923876
H      -15.53593259      -3.32274279      -7.54966337       0.04219703       0.03598427      -0.01907498      -0.04699223      -0.43378509      -0.18722446
F      -13.29630021      -1.75561558      -7.56247058       0.05229293      -0.31164381      -0.78056708       0.72938946       0.17834826      -0.39834851
Cl     -15.51533993      -3.15244256      -4.15083354      -1.35461588       1.50324444       0.02183026       0.14457569      -0.01928480       0.35855145
H      -14.23229832      -1.34324585      -5.65975598       0.12192872      -0.23636044       0.08097059       0.07910010       0.00515622       0.30152490
H      -13.61471279      -2.99553153      -5.82823206      -0.09988160      -0.04285330      -0.10568667      -0.09332473      -0.71787317      -0.14167180