9
Properties=species:S:1:pos:R:3:momenta:R:3:forces:R:3 R1=H R2=H R3=CH3 R4=CH3 leaving_group=Cl nucleophile=Cl rxn=sn2 config=rcc label=H_H_CH3_CH3_Cl_Cl_sn2_rcc conformation=0 reactant_id=H_H_CH3_CH3_Cl_none_-_r product_id=H_H_CH3_CH3_none_Cl_sn2_pc mp2_author_energy=-29302.391748605172 mp2_my_energy=0 hash=59123 address=T id=71 energy=-17370.412368016237 pbc="F F F"
C        0.12542541       0.11270554      -0.00029240      -0.04337543      -0.42775491      -0.61510633      -0.09214561       1.11788396      -0.00082481
C        1.62503867       0.00847468       0.00156754       0.71723061       0.47557224       0.58823176      -0.06338950      -0.85342640       0.00215309
H        1.99473018      -0.50605055       0.89354482       0.16483321      -0.20137261      -0.18706780       0.00320508       0.00300841       0.00517082
F        0.89788639       2.64149152      -0.00442372      -0.10626733       0.57568585      -0.21900412      -0.23271315      -0.10403772      -0.00076135
Cl      -0.69504884      -1.53494042       0.00509220       0.62784353       1.69615228      -0.48600600       0.38207948      -0.16174994      -0.00050876
H       -0.22306082       0.64592326      -0.87549887       0.14702684       0.15099909      -0.08021875      -0.00302890      -0.00293595      -0.00472561
H       -0.22431889       0.65275656       0.87018381       0.21060062       0.20547340       0.04362129      -0.00396382      -0.00350204       0.00469305
H        1.88822962       1.08069343      -0.00059746      -0.10920859       0.05324841      -0.13770295       0.00778691       0.00253743      -0.00033365
H        1.99700981      -0.51031959      -0.88698835       0.05743056      -0.03845004       0.10422727       0.00216950       0.00222225      -0.00486279
9
Properties=species:S:1:pos:R:3:momenta:R:3:forces:R:3 R1=H R2=H R3=CH3 R4=CH3 leaving_group=Cl nucleophile=Cl rxn=sn2 config=rcc label=H_H_CH3_CH3_Cl_Cl_sn2_rcc conformation=0 reactant_id=H_H_CH3_CH3_Cl_none_-_r product_id=H_H_CH3_CH3_none_Cl_sn2_pc mp2_author_energy=-29302.391748605172 mp2_my_energy=0 hash=59123 address=T id=71 energy=-17370.24316013347 pbc="F F F"
C        0.79923954       1.05384951      -0.41032028       0.02782862       0.04585552      -0.18388367      -2.53416632      -0.01887362      -2.18132552
C        2.08253681       0.81314809       0.25044099       0.53946367       1.28564993      -0.13362740      -0.30660050       0.05497413       0.94806733
H        1.85547738       0.38625987       1.24135552      -0.00201155       0.31430078       0.08656185       0.48423153       0.12774882      -0.23243572
F        1.40444732       3.62173405      -0.48238555       1.05463347       0.81031886      -0.09099984       0.08400861      -0.40540826       0.09320523
Cl      -0.00555373      -0.65550999      -0.51785652       0.70355370       0.80442023      -0.96342240       0.13763442       0.08823056      -0.00861525
H        0.79919560       1.41439482      -1.45752661       0.13647699       0.04544420      -0.08263790       0.65242648      -0.26620981       0.80851918
H        0.01365373       1.66389193       0.04045328      -0.14351596       0.01412788      -0.06160414       0.89793109      -0.05087960       0.55038906
H        2.47741551       1.81091226       0.32113141      -0.03929070       0.17384949       0.08828553       0.43534637       0.52125835       0.06684423
H        2.70600106       0.13784795      -0.32456650       0.06099459      -0.00026405      -0.04661622       0.14918832      -0.05084056      -0.04464854
9
Properties=species:S:1:pos:R:3:momenta:R:3:forces:R:3 R1=H R2=H R3=CH3 R4=CH3 leaving_group=Cl nucleophile=Cl rxn=sn2 config=rcc label=H_H_CH3_CH3_Cl_Cl_sn2_rcc conformation=0 reactant_id=H_H_CH3_CH3_Cl_none_-_r product_id=H_H_CH3_CH3_none_Cl_sn2_pc mp2_author_energy=-29302.391748605172 mp2_my_energy=0 hash=59123 address=T id=71 energy=-17370.30172929506 pbc="F F F"
C        1.42125199       1.97542426      -0.85981725       1.27481004       1.54204436       0.22884122      -1.30715465      -0.22019611       0.34771942
C        2.26154107       1.86769549       0.39691196      -0.26916430       0.17240564       0.26325843       0.57733258       0.68156310      -1.33027509
H        1.68048668       1.59789140       1.26980857      -0.02764749      -0.13179197       0.02290583      -0.22914285       0.07209258       0.07690201
F        2.09797993       4.50363712      -0.94331749       0.12817685       0.58972985      -0.67584186       0.25012702       0.57459635       0.11096915
Cl       0.75877526       0.24821557      -1.02847108       0.70242433       1.01032049      -0.89515470      -0.27141713       0.16638311      -0.20946379
H        1.90457007       2.23488397      -1.81976730       0.04879020      -0.14878209      -0.06614903       0.03427872      -0.14573941       1.05937849
H        0.61078646       2.72267506      -0.66877489      -0.04593279      -0.09025084      -0.00135615       0.61260675      -0.89809970      -0.50397818
H        2.71842342       2.85614342       0.45511749       0.19346731      -0.04492693      -0.04100774      -0.11093890       0.14670699       0.23945432
H        3.01968899       1.12066165       0.22255689       0.02604119       0.13597615      -0.04110183       0.44430847      -0.37730691       0.20929366
9
Properties=species:S:1:pos:R:3:momenta:R:3:forces:R:3 R1=H R2=H R3=CH3 R4=CH3 leaving_group=Cl nucleophile=Cl rxn=sn2 config=rcc label=H_H_CH3_CH3_Cl_Cl_sn2_rcc conformation=0 reactant_id=H_H_CH3_CH3_Cl_none_-_r product_id=H_H_CH3_CH3_none_Cl_sn2_pc mp2_author_energy=-29302.391748605172 mp2_my_energy=0 hash=59123 address=T id=71 energy=-17370.25572434958 pbc="F F F"
C        2.12242504       2.90233698      -1.29621971       0.31475804       0.06349955      -0.59063587       0.76440203       0.24730100       1.03434045
C        2.35908645       3.10318977       0.18651385       0.00642657       0.30693126      -0.26669621      -1.26019181      -0.45517301       0.38113115
H        1.45461666       2.81966840       0.71488601      -0.14331714       0.20536099       0.00448112      -0.37949495       0.11318866       0.39245724
F        2.80527724       5.27206196      -1.24391920       0.49453802       0.82556076      -0.14877399       0.21343602       0.87104824      -0.28920710
Cl       1.55020712       1.17131590      -1.49765237       1.02323656       1.24236175      -0.11107147      -0.15843386      -0.45034363      -0.18525812
H        3.12147024       2.99429560      -1.70733579      -0.03759816       0.01871763       0.05199898      -0.49060308       0.17034872      -0.91123474
H        1.36662206       3.61190387      -1.65255095       0.15831555       0.11519890      -0.03881726       0.61892619      -0.45890610      -0.14761251
H        2.55450936       4.16865637       0.24695627      -0.22493379       0.00932471       0.18523486       0.20218282       0.22516196       0.01474649
H        3.14539055       2.50718433       0.63057843       0.18209453      -0.13691253      -0.13850342       0.48977665      -0.26262585      -0.28936287
9
Properties=species:S:1:pos:R:3:momenta:R:3:forces:R:3 R1=H R2=H R3=CH3 R4=CH3 leaving_group=Cl nucleophile=Cl rxn=sn2 config=rcc label=H_H_CH3_CH3_Cl_Cl_sn2_rcc conformation=0 reactant_id=H_H_CH3_CH3_Cl_none_-_r product_id=H_H_CH3_CH3_none_Cl_sn2_pc mp2_author_energy=-29302.391748605172 mp2_my_energy=0 hash=59123 address=T id=71 energy=-17370.147885551127 pbc="F F F"
C        2.91540175       4.04422439      -1.57486348      -0.06287724       0.75650736      -1.32201212      -0.40685884      -1.96965014      -0.12628000
C        2.34869410       4.30644495      -0.18746814       0.26243475       0.85244780      -0.33748258       0.73277553       0.88073877      -1.33849841
H        1.25922331       4.28882224      -0.19577195       0.00287246      -0.01191180      -0.09458896       0.06543019      -0.21758606       0.27420252
F        3.59268777       6.22583492      -1.60284485       0.48102333       0.53289159       0.42847664       0.45875108       1.31583636      -0.00173263
Cl       2.43502350       2.12145964      -1.99048829       1.41642288       1.22326559      -0.19257360      -0.02376234       0.92566094       0.48240043
H        4.00881968       3.93322486      -1.65488636      -0.06308376      -0.01563088       0.15833298      -0.88787392       0.54965995       0.06295669
H        2.39357379       4.58444369      -2.34985624       0.13948339       0.09674395      -0.15413234       0.45626748      -0.07275334      -0.13986574
H        2.74665894       5.29667989       0.07005234       0.23266711      -0.10745242      -0.00520876      -0.41474215       0.00990658      -0.47019665
H        2.82591103       3.64747502       0.47492055      -0.03731824       0.21688610       0.11136337       0.02001298      -1.42181306       1.25701379
9
Properties=species:S:1:pos:R:3:momenta:R:3:forces:R:3 R1=H R2=H R3=CH3 R4=CH3 leaving_group=Cl nucleophile=Cl rxn=sn2 config=rcc label=H_H_CH3_CH3_Cl_Cl_sn2_rcc conformation=0 reactant_id=H_H_CH3_CH3_Cl_none_-_r product_id=H_H_CH3_CH3_none_Cl_sn2_pc mp2_author_energy=-29302.391748605172 mp2_my_energy=0 hash=59123 address=T id=71 energy=-17370.137659563512 pbc="F F F"
C        3.61846269       5.21502335      -2.02265136       0.21046298      -0.02843371       0.21524714       0.23881038      -2.33510307       0.68204004
C        2.48215736       5.52254279      -1.07677860       0.64574087       1.25079031      -0.48496625       0.42840228       0.22875692       0.02142239
H        1.50847862       5.39836851      -1.50707208      -0.16364414      -0.03318339       0.08022175      -0.61663021      -0.06592030      -0.51159869
F        4.44036678       7.15310215      -1.81992413       0.27862355       0.39701962       0.02926630       0.48100636       1.80820651       0.19659067
Cl       3.40687224       3.27699133      -2.36848979       1.70655971       1.70214423      -0.71143080      -0.56448062      -0.52471814      -0.19411514
H        4.55508562       5.07651852      -1.50405559      -0.19393658      -0.11309789      -0.04985810       0.00440416       0.55958516      -0.42847907
H        3.65266373       5.57212058      -3.03817264      -0.19291232       0.01860402       0.02136738      -0.19661296       0.26489497       0.33766700
H        2.63998885       6.54054435      -0.75803385       0.10076464       0.38621296      -0.19679303       0.04989405       0.36154320      -0.13252612
H        2.51589516       4.89135869      -0.19264195      -0.06265036      -0.09998735      -0.28558218       0.17520655      -0.29724523       0.02899891
9
Properties=species:S:1:pos:R:3:momenta:R:3:forces:R:3 R1=H R2=H R3=CH3 R4=CH3 leaving_group=Cl nucleophile=Cl rxn=sn2 config=rcc label=H_H_CH3_CH3_Cl_Cl_sn2_rcc conformation=0 reactant_id=H_H_CH3_CH3_Cl_none_-_r product_id=H_H_CH3_CH3_none_Cl_sn2_pc mp2_author_energy=-29302.391748605172 mp2_my_energy=0 hash=59123 address=T id=71 energy=-17370.12742708115 pbc="F F F"
C        4.38409015       6.24386372      -2.21601301       0.92757459       0.41528901       0.27607982      -0.43679162      -0.69245930      -1.72737588
C        2.91659967       6.65170936      -2.03773801       0.26174030       0.51906112      -0.01701329       1.17932601      -1.41554952       0.27447300
H        2.41408082       6.28761517      -2.91614710       0.01066850       0.06566000      -0.26772127      -0.48265093       0.21312291      -0.44296905
F        4.96700002       8.07260868      -1.90479779      -0.05825392      -0.28507277      -0.57876783       0.53007330       1.42503668       0.25983864
Cl       4.11709359       4.12046677      -2.70424539       1.39380790       1.77571423      -0.56743003      -0.21664633       0.11623835       0.27196952
H        5.07853188       6.05705808      -1.44123628      -0.11888813      -0.09795561       0.01033025      -0.08731695      -0.27779381       0.57838966
H        4.81458500       6.36299220      -3.21398566      -0.14821157       0.02569898      -0.04195095      -0.29486063       0.07090417       0.69551582
H        2.95307901       7.73586917      -1.96749889       0.06781861       0.30824424       0.00039282      -0.43570499      -0.06029482       0.22341899
H        2.45776169       6.09973855      -1.19570586      -0.37876023       0.19830564       0.02408693       0.24457215       0.62079534      -0.13326068
9
Properties=species:S:1:pos:R:3:momenta:R:3:forces:R:3 R1=H R2=H R3=CH3 R4=CH3 leaving_group=Cl nucleophile=Cl rxn=sn2 config=rcc label=H_H_CH3_CH3_Cl_Cl_sn2_rcc conformation=0 reactant_id=H_H_CH3_CH3_Cl_none_-_r product_id=H_H_CH3_CH3_none_Cl_sn2_pc mp2_author_energy=-29302.391748605172 mp2_my_energy=0 hash=59123 address=T id=71 energy=-17370.30730506696 pbc="F F F"
C        5.08045737       7.35982594      -2.46694594       0.58506597       0.61041981      -0.46477517      -0.48147980       1.68943739       0.89721129
C        3.78775366       7.77147424      -3.12722053       0.43723290       0.27893030      -0.79745932      -1.26069442      -1.29154262       0.50454172
H        3.75746339       7.34085271      -4.13514801       0.09737147       0.13876278      -0.32434248       0.09149406       0.95579882      -0.09926266
F        5.48583818       9.09041507      -2.06481621       0.59694780       0.57421569       0.03603132      -0.00241573      -0.93135592       0.08258081
Cl       4.88989105       5.18649694      -3.06369151       1.02914569       1.47458337      -0.47796109      -0.13463695      -0.67237159       0.03023654
H        5.09791909       7.04881195      -1.42106923      -0.24851691       0.22578898       0.15086290       0.17200594       0.13305865      -0.69012739
H        5.92560537       7.30377220      -3.08532120       0.05956493       0.13931114       0.11559161       0.98973189      -0.07389202      -0.11038201
H        3.68038345       8.85120836      -2.98477555      -0.12401010       0.23488108       0.00437756      -0.03567364      -0.17625478      -0.68039968
H        2.90373090       7.26553239      -2.66976864      -0.06905592      -0.14491864       0.35452626       0.66166866       0.36712208       0.06560138
9
Properties=species:S:1:pos:R:3:momenta:R:3:forces:R:3 R1=H R2=H R3=CH3 R4=CH3 leaving_group=Cl nucleophile=Cl rxn=sn2 config=rcc label=H_H_CH3_CH3_Cl_Cl_sn2_rcc conformation=0 reactant_id=H_H_CH3_CH3_Cl_none_-_r product_id=H_H_CH3_CH3_none_Cl_sn2_pc mp2_author_energy=-29302.391748605172 mp2_my_energy=0 hash=59123 address=T id=71 energy=-17370.624411836965 pbc="F F F"
C        5.60902665       8.51445268      -2.77396546       0.08865186       0.30436781       0.33442374       0.75133798       0.91963312      -0.46948902
C        4.73248439       8.81764204      -3.96126526       0.61025625       1.00602992      -0.22211826       0.52246511      -0.59021480      -2.00368142
H        4.95505424       8.12821987      -4.86240392       0.01943927       0.18361630      -0.18017446      -0.41272510       1.01001648       1.61722795
F        5.84254104      10.01506943      -2.16147162      -0.09276786       0.39012532      -0.53166791      -0.31710951      -0.72007761      -0.39765620
Cl       5.56698070       6.00745836      -3.40567182       0.98686536       1.42852540      -0.31003255       0.01122158       0.84296653       0.35950502
H        5.06404478       8.10940894      -1.94591316       0.35689589      -0.07687495      -0.00302781       0.39660681      -0.60662249       0.26419156
H        6.65776658       8.28350167      -2.95863446       0.08815741       0.05038352      -0.12987683      -0.55441732      -0.38598128       0.25264842
H        4.87651033       9.86931898      -4.33171358       0.23567900       0.02090397      -0.18692736      -0.22099336      -0.86325219       0.83455516
H        3.71955362       8.59376543      -3.61911357      -0.08443206      -0.00670912      -0.08173664      -0.17638618       0.39353224      -0.45730146
9
Properties=species:S:1:pos:R:3:momenta:R:3:forces:R:3 R1=H R2=H R3=CH3 R4=CH3 leaving_group=Cl nucleophile=Cl rxn=sn2 config=rcc label=H_H_CH3_CH3_Cl_Cl_sn2_rcc conformation=0 reactant_id=H_H_CH3_CH3_Cl_none_-_r product_id=H_H_CH3_CH3_none_Cl_sn2_pc mp2_author_energy=-29302.391748605172 mp2_my_energy=0 hash=59123 address=T id=71 energy=-17370.951577461376 pbc="F F F"
C        5.99896017       9.44396170      -3.15677826       0.15193429       0.81950224      -0.93722447       2.63910149       1.51099422       0.46336631
C        5.82306554       9.84738704      -4.59541630       0.85026231       0.14719154      -0.68069162      -0.13996480      -0.16151102      -1.19317314
H        6.18525447       8.99260460      -5.19966716      -0.11281265       0.16707737       0.13258708      -0.57480152       0.78416509      -0.02967911
F        6.12435977      10.73156845      -2.40651504       0.19020002       1.20582554       0.87712696      -0.61709924       0.04692283      -0.27118997
Cl       6.23609755       6.98883145      -3.71009441       0.82888823       0.55724487      -0.65136143      -0.05671244      -0.85352619      -0.03453533
H        5.26484696       8.91887563      -2.61140023       0.14293320       0.03393470       0.19163798      -0.78858560      -0.36939537       0.04830586
H        7.02469616       9.09269740      -3.00846420      -0.07103276      -0.00743210       0.19910276      -0.78753080      -0.24180102       0.05805322
H        6.52976814      10.69190919      -4.81358452       0.01257564       0.09649475      -0.21647774      -0.83787002      -0.51742417       0.41918505
H        4.77146105      10.11207303      -4.90932089      -0.04976644      -0.11628278      -0.06819600       1.16346293      -0.19842437       0.53966713
9
Properties=species:S:1:pos:R:3:momenta:R:3:forces:R:3 R1=H R2=H R3=CH3 R4=CH3 leaving_group=Cl nucleophile=Cl rxn=sn2 config=rcc label=H_H_CH3_CH3_Cl_Cl_sn2_rcc conformation=0 reactant_id=H_H_CH3_CH3_Cl_none_-_r product_id=H_H_CH3_CH3_none_Cl_sn2_pc mp2_author_energy=-29302.391748605172 mp2_my_energy=0 hash=59123 address=T id=71 energy=-17370.98776165575 pbc="F F F"
C        7.16096290      10.47942571      -3.62624917       0.54150292       0.94986925      -0.30720456       0.07620303       0.93854673      -0.38909948
C        7.12643995      10.98571208      -5.07091325       0.65137261       0.27382691      -0.54985893      -2.15723938       1.18895106       1.13797657
H        7.88938749      10.61976235      -5.70596986       0.08866917       0.32225186      -0.30206194       0.94545978      -0.60981482      -0.41847757
F        6.14398926      11.06026445      -2.93255622       0.06318890      -1.06581983      -0.68602396       0.28672547       0.02916483      -0.06352201
Cl       6.74747659       8.21709062      -3.95282176       0.33354600       2.70999061       0.23347593       0.06292297      -0.28289924      -0.07487512
H        6.90562267       9.44469557      -3.66704908       0.20083364       0.18123517      -0.16443961      -0.07316293      -0.56003235       0.10153372
H        8.10057300      10.63158574      -3.09704499       0.19140540       0.00884868       0.22882863       0.06193306       0.14064832      -0.11907476
H        7.10422925      12.13947756      -5.13160115       0.04604231       0.04001409       0.14489956      -0.11606354      -1.81977714       0.18762495
H        6.14116866      10.51096058      -5.34190894       0.15644162      -0.02383334       0.05310280       0.91322155       0.97521261      -0.36208629
9
Properties=species:S:1:pos:R:3:momenta:R:3:forces:R:3 R1=H R2=H R3=CH3 R4=CH3 leaving_group=Cl nucleophile=Cl rxn=sn2 config=rcc label=H_H_CH3_CH3_Cl_Cl_sn2_rcc conformation=0 reactant_id=H_H_CH3_CH3_Cl_none_-_r product_id=H_H_CH3_CH3_none_Cl_sn2_pc mp2_author_energy=-29302.391748605172 mp2_my_energy=0 hash=59123 address=T id=71 energy=-17370.98406927129 pbc="F F F"
C        7.08299603      11.45162011      -4.04977033       0.10790074       0.18551464       0.04820692      -0.34789620      -1.45728763      -2.29863632
C        8.10556158      11.93069398      -5.13404742       0.57584280       0.81620579      -0.15025909      -1.75028297       2.05741124       2.22435603
H        8.51585959      11.20631270      -5.74452351      -0.21312342       0.01282821       0.15464078       0.67585927      -1.82881111      -1.05946599
F        6.57888169      12.57484952      -3.46737898       0.45484015      -0.43147759      -1.00460347       0.01668787       0.91054062       0.47039572
Cl       7.72732484       9.00117812      -4.41941187       0.42196290       2.41803921      -0.27511437       0.08210178      -0.32570012       0.05812788
H        6.22293797      10.94411458      -4.55856219       0.16628516      -0.01390276      -0.00848890       0.75623400       0.35381248       0.64757017
H        7.51512608      10.81187762      -3.28418875       0.24695908      -0.03743892       0.07209347      -0.09248767       0.18930988      -0.22004072
H        8.89378562      12.38053920      -4.52110113       0.09242067      -0.10331775       0.08505851       0.11829480       0.47172809      -0.53579783
H        7.57558414      12.67965944      -5.77540687       0.11082217       0.08807828      -0.08733496       0.54148913      -0.37100344       0.71349105
9
Properties=species:S:1:pos:R:3:momenta:R:3:forces:R:3 R1=H R2=H R3=CH3 R4=CH3 leaving_group=Cl nucleophile=Cl rxn=sn2 config=rcc label=H_H_CH3_CH3_Cl_Cl_sn2_rcc conformation=0 reactant_id=H_H_CH3_CH3_Cl_none_-_r product_id=H_H_CH3_CH3_none_Cl_sn2_pc mp2_author_energy=-29302.391748605172 mp2_my_energy=0 hash=59123 address=T id=71 energy=-17371.314508104708 pbc="F F F"
C        7.51555688      12.10004365      -4.57282040       0.12648187       1.00633532      -0.12131362       1.69013531      -0.53974208      -0.74514420
C        8.77950455      12.70970627      -5.16771269      -0.28181344      -0.45656534       0.45800646      -0.12703827       0.82103001       0.76806384
H        9.20259463      12.01453122      -5.84244923      -0.15293898       0.09458683       0.18698706       0.43729868      -0.83876392      -0.71538098
F        6.85055564      13.04918174      -3.89127670       0.12166004       1.51964793      -0.40471237      -0.70026239       1.04184984       1.34548276
Cl       8.22214140       9.81811204      -4.62235736       1.21838131      -0.90037039      -0.73289207       0.30118459      -0.72788203       0.02966892
H        6.89314628      11.77686804      -5.36658880       0.05134540      -0.08551611       0.03858381      -0.64097682      -0.28352226      -0.79634357
H        7.78991513      11.22752386      -3.94947850      -0.00295807       0.04454671      -0.04448053      -0.50089857       0.69700139       0.00111963
H        9.53371418      12.93665303      -4.40299412       0.04703502       0.18630346      -0.00991995      -0.16850295      -0.01543681       0.02038732
H        8.58550327      13.64565111      -5.70605291      -0.06036435       0.18511674      -0.00354140      -0.29093958      -0.15453415       0.09214628
9
Properties=species:S:1:pos:R:3:momenta:R:3:forces:R:3 R1=H R2=H R3=CH3 R4=CH3 leaving_group=Cl nucleophile=Cl rxn=sn2 config=rcc label=H_H_CH3_CH3_Cl_Cl_sn2_rcc conformation=0 reactant_id=H_H_CH3_CH3_Cl_none_-_r product_id=H_H_CH3_CH3_none_Cl_sn2_pc mp2_author_energy=-29302.391748605172 mp2_my_energy=0 hash=59123 address=T id=71 energy=-17371.125051112238 pbc="F F F"
C        7.99883334      12.89752378      -5.03672795       0.09407509       0.69958511      -0.75396455      -0.21145398      -3.00475898      -1.47601470
C        9.31601522      13.51386241      -5.06379068       0.58868898       0.46119516       0.00914909       0.37431226       0.84722344      -0.25157691
H        9.99043216      12.81628631      -5.49089597      -0.09413904       0.53102124       0.04053179       0.82501036      -0.60037292      -0.15296687
F        7.13715914      13.62373553      -4.31890535       0.98616836      -0.83014871      -0.67169447      -1.47135649       1.40415725       1.34151087
Cl       8.67186532      10.36948465      -4.85304981       0.04356371       1.83408605      -0.15259721      -0.11265821       1.00296509      -0.14262051
H        7.62094126      12.90405130      -6.08124986       0.00426432      -0.04873319       0.07056221       0.18752140      -0.36625440       0.50575096
H        7.99747615      11.87251552      -4.64711604       0.21912234       0.16686415       0.00734034      -0.09395198       0.19594689      -0.02045377
H        9.64960608      13.91528276      -4.12359235       0.19560643       0.20685805       0.28998784       0.29694603      -0.18874617       0.63057723
H        9.21714695      14.34186905      -5.73746926       0.09079030       0.15919862      -0.10260522       0.20563062       0.70983980      -0.43420631
9
Properties=species:S:1:pos:R:3:momenta:R:3:forces:R:3 R1=H R2=H R3=CH3 R4=CH3 leaving_group=Cl nucleophile=Cl rxn=sn2 config=rcc label=H_H_CH3_CH3_Cl_Cl_sn2_rcc conformation=0 reactant_id=H_H_CH3_CH3_Cl_none_-_r product_id=H_H_CH3_CH3_none_Cl_sn2_pc mp2_author_energy=-29302.391748605172 mp2_my_energy=0 hash=59123 address=T id=71 energy=-17371.229782138416 pbc="F F F"
C        8.50684856      13.50081550      -5.26981884      -0.13017171       0.41944291       0.82486758       0.96837596      -0.85967923      -0.98863475
C        9.85028721      14.15312930      -4.92140756       0.54621858       0.14157024       0.24727003      -0.07154055      -2.10221998      -2.19970875
H       10.63312027      13.54294330      -5.46003861      -0.13991287       0.19727729      -0.12321019      -0.73063250       0.50210324       0.92143777
F        7.47676330      14.32002399      -4.96903325       0.34848284       0.37525138      -1.02611699      -0.77120940       0.79452282       0.54550240
Cl       9.21344241      11.22811117      -5.16877956       0.67098952       0.48835828      -0.35208444       0.32941782      -0.84317800       0.20439439
H        8.43788177      13.21860755      -6.33298995      -0.02815388       0.08297573      -0.02859651       0.25595229       0.94761730       0.16244584
H        8.36595431      12.54969190      -4.76563042      -0.13593397      -0.00265065       0.05592378      -0.17467578       0.08750143       0.52894623
H       10.04017426      14.17786005      -3.87612431       0.11133428      -0.26686241      -0.13703547       0.16657666       0.20940166       0.92593522
H        9.86821875      15.10456873      -5.38926597      -0.23670451       0.06805186      -0.05827969       0.02773549       1.26393075      -0.10031835
9
Properties=species:S:1:pos:R:3:momenta:R:3:forces:R:3 R1=H R2=H R3=CH3 R4=CH3 leaving_group=Cl nucleophile=Cl rxn=sn2 config=rcc label=H_H_CH3_CH3_Cl_Cl_sn2_rcc conformation=0 reactant_id=H_H_CH3_CH3_Cl_none_-_r product_id=H_H_CH3_CH3_none_Cl_sn2_pc mp2_author_energy=-29302.391748605172 mp2_my_energy=0 hash=59123 address=T id=71 energy=-17371.108730980664 pbc="F F F"
C        9.02060589      14.27052425      -5.63229909       0.90175405       1.29407743      -0.04560530       0.74586877      -0.43821558      -0.55396688
C       10.12417334      14.86872188      -4.81699062       0.66981057       1.18893641      -0.17812529       1.74769376      -0.24223687      -0.73722760
H       11.15230965      14.44850184      -5.05461236       0.27497042      -0.28582556       0.20444847      -1.44741141      -0.00890727       0.07152925
F        7.87677255      14.97894687      -5.44853930      -0.61090759       0.11222732      -0.40869602      -0.90868071       0.22133561       0.80191932
Cl       9.68215409      11.76134236      -5.41803519       0.44617449      -0.10816403      -0.50647375      -0.05575185       0.76871453      -0.04256226
H        9.22947566      14.49044202      -6.65180925      -0.00660838       0.11428356      -0.06682038       0.46776331      -0.58687809      -1.05120009
H        8.85941198      13.20200542      -5.45480964       0.15200032      -0.00774703       0.04416148      -0.10005589       0.28244503      -0.03855976
H        9.91551515      14.61410057      -3.80188185      -0.10850889       0.21544862      -0.19994137       0.06136351       0.46272251       1.07713249
H       10.24010396      15.95334424      -5.03186417      -0.12863545      -0.14734067       0.21317932      -0.51078950      -0.45897986       0.47293554
9
Properties=species:S:1:pos:R:3:momenta:R:3:forces:R:3 R1=H R2=H R3=CH3 R4=CH3 leaving_group=Cl nucleophile=Cl rxn=sn2 config=rcc label=H_H_CH3_CH3_Cl_Cl_sn2_rcc conformation=0 reactant_id=H_H_CH3_CH3_Cl_none_-_r product_id=H_H_CH3_CH3_none_Cl_sn2_pc mp2_author_energy=-29302.391748605172 mp2_my_energy=0 hash=59123 address=T id=71 energy=-17371.005373943335 pbc="F F F"
C        9.59965891      14.96801250      -5.93133035       0.31152132      -0.59202051      -0.22852746       0.71058151      -0.33925331      -1.28299847
C       10.40162055      15.53177492      -4.77665385       0.70833888      -0.23533654       0.04472598      -3.27076092      -0.13674290       0.84043215
H       11.38789519      15.21348786      -4.73874405      -0.06817040      -0.09376324      -0.10209832       1.84541749      -0.82696521      -0.08302628
F        8.50581923      15.75752600      -6.07043522       0.06761433       1.16322587      -0.86564096      -1.13879941       0.28983432       0.31866852
Cl      10.27025623      12.67453182      -5.73872001       1.04563242       2.07828179      -0.23004991       0.32800186      -0.39845899       0.16395559
H       10.05653914      14.98801522      -6.92402575      -0.08197346      -0.00233919       0.06547468       0.57724067       0.08615467       0.49315038
H        9.29871209      13.91501058      -5.77127769      -0.13984610       0.13468065      -0.03129108      -0.23526307       0.89773693       0.09234468