9
Properties=species:S:1:pos:R:3:momenta:R:3:forces:R:3 R1=H R2=H R3=CH3 R4=CH3 leaving_group=Cl nucleophile=Cl rxn=sn2 config=rcc label=H_H_CH3_CH3_Cl_Cl_sn2_rcc conformation=0 reactant_id=H_H_CH3_CH3_Cl_none_-_r product_id=H_H_CH3_CH3_none_Cl_sn2_pc mp2_author_energy=-29302.391748605172 mp2_my_energy=0 hash=59123 address=T id=71 energy=-17370.412368016237 pbc="F F F"
C        0.12542541       0.11270554      -0.00029240       0.26262829      -0.39891546      -0.23312789      -0.09214561       1.11788396      -0.00082481
C        1.62503867       0.00847468       0.00156754      -0.10975926      -0.38484950       0.30248403      -0.06338950      -0.85342640       0.00215309
H        1.99473018      -0.50605055       0.89354482      -0.28081413      -0.40271129       0.06106896       0.00320508       0.00300841       0.00517082
F        0.89788639       2.64149152      -0.00442372      -0.02035988       0.09450244       0.39291463      -0.23271315      -0.10403772      -0.00076135
Cl      -0.69504884      -1.53494042       0.00509220      -0.54614897      -1.31698822      -0.00841475       0.38207948      -0.16174994      -0.00050876
H       -0.22306082       0.64592326      -0.87549887       0.22864167      -0.29136140       0.13166892      -0.00302890      -0.00293595      -0.00472561
H       -0.22431889       0.65275656       0.87018381       0.24674013       0.14276495      -0.22242790      -0.00396382      -0.00350204       0.00469305
H        1.88822962       1.08069343      -0.00059746       0.22748450      -0.03835729      -0.07018652       0.00778691       0.00253743      -0.00033365
H        1.99700981      -0.51031959      -0.88698835      -0.26113522       0.09438797       0.30958529       0.00216950       0.00222225      -0.00486279
9
Properties=species:S:1:pos:R:3:momenta:R:3:forces:R:3 R1=H R2=H R3=CH3 R4=CH3 leaving_group=Cl nucleophile=Cl rxn=sn2 config=rcc label=H_H_CH3_CH3_Cl_Cl_sn2_rcc conformation=0 reactant_id=H_H_CH3_CH3_Cl_none_-_r product_id=H_H_CH3_CH3_none_Cl_sn2_pc mp2_author_energy=-29302.391748605172 mp2_my_energy=0 hash=59123 address=T id=71 energy=-17370.319569176554 pbc="F F F"
C        0.12165356      -0.64590742       0.15354238      -0.48359350      -0.43275643      -0.04693952      -0.61034268      -3.26902298      -0.65223970
C        1.28383041      -1.02064950       1.03538162       0.32893259       0.03980078       0.63240449       0.60442321      -0.04876785      -1.74784776
H        0.97551421      -1.47689691       1.94711111       0.15801113       0.12944197      -0.00492844      -0.24999307      -0.01939282       0.97802609
F        1.15650543       1.71344560       0.28198616       0.49382814      -0.84275338       0.54635347       1.03811300       2.24372572       0.12664981
Cl      -0.88388252      -2.17879948      -0.14470334      -0.42579469      -0.90573682      -0.40026300       0.13522938       0.00144342       0.07978591
H        0.43020402      -0.26936149      -0.80344005      -0.13329894      -0.25537082      -0.00609055       0.22088260       0.01299189      -0.23148970
H       -0.52191336       0.07078801       0.56356755      -0.01269645      -0.09855110      -0.18413575      -0.74025355       0.89735542       0.76723836
H        1.79692110      -0.04670040       1.07949529      -0.21151745       0.05901054       0.03497821      -0.11773286      -0.08870745       0.49881800
H        1.93378416      -1.75094567       0.51214931       0.02645190      -0.26344918       0.11044575      -0.28032603       0.27037465       0.18105900
9
Properties=species:S:1:pos:R:3:momenta:R:3:forces:R:3 R1=H R2=H R3=CH3 R4=CH3 leaving_group=Cl nucleophile=Cl rxn=sn2 config=rcc label=H_H_CH3_CH3_Cl_Cl_sn2_rcc conformation=0 reactant_id=H_H_CH3_CH3_Cl_none_-_r product_id=H_H_CH3_CH3_none_Cl_sn2_pc mp2_author_energy=-29302.391748605172 mp2_my_energy=0 hash=59123 address=T id=71 energy=-17370.21387686412 pbc="F F F"
C        0.14622185      -1.71210032       0.33363526      -0.18437316      -0.95434462       0.95388564      -0.63981375      -1.02253242       2.20493099
C        0.26733988      -2.00777749       1.86395570      -0.78374979      -0.51207998       0.26356784      -0.83841105       1.82185731      -0.49689630
H       -0.68784921      -1.81553792       2.45516447      -0.02518695       0.00884633      -0.17840861       0.98240066      -0.45853056      -1.13739158
F        1.68189898       0.38093493       0.79449574      -0.07616416      -1.68054540       0.30163056      -0.09841639      -0.25234804       0.09106455
Cl      -0.99292295      -3.04035932      -0.21256037       0.15891225      -0.82888210      -0.15007511       0.00106305      -0.05920311      -0.48073122
H        1.08660730      -1.76037486      -0.13833850       0.15097169      -0.05244359      -0.10160004       1.09521878      -0.60410976      -0.45948443
H       -0.21287412      -0.76524363       0.03185665       0.27934099       0.04627885       0.06989453      -0.74379115       0.87822006       0.35617424
H        0.98610692      -1.25957402       2.21172823       0.02414579      -0.13780545      -0.13054711       0.19343341      -0.14420835      -0.19258212
H        0.60328126      -3.02791846       2.00356164       0.07123868       0.30146849      -0.01782326       0.04831644      -0.15914513       0.11491587
9
Properties=species:S:1:pos:R:3:momenta:R:3:forces:R:3 R1=H R2=H R3=CH3 R4=CH3 leaving_group=Cl nucleophile=Cl rxn=sn2 config=rcc label=H_H_CH3_CH3_Cl_Cl_sn2_rcc conformation=0 reactant_id=H_H_CH3_CH3_Cl_none_-_r product_id=H_H_CH3_CH3_none_Cl_sn2_pc mp2_author_energy=-29302.391748605172 mp2_my_energy=0 hash=59123 address=T id=71 energy=-17370.212249501277 pbc="F F F"
C        0.22410452      -2.81289096       0.70946719      -0.00261787      -0.25040087       0.44336240       0.19480160       0.91091956      -1.19891107
C       -0.44898483      -2.38931788       1.93279380      -0.38715115      -1.11836470      -0.49869205       0.40236592      -1.54754191       1.96868900
H       -1.42016580      -2.04034594       1.78933371      -0.16713923       0.03877648      -0.11694164      -1.56000177       1.31118168      -0.45072292
F        1.98611768      -1.18133644       1.57825846       0.47987035      -1.38637990       0.59160848      -0.45114280      -0.68422748      -0.35110400
Cl      -1.11136206      -3.84571439      -0.21869364      -0.09294412      -0.97585827       0.72055261       0.63967999      -0.11288348       0.31038217
H        1.08537458      -3.39093897       0.95475627       0.07231375      -0.09946373       0.36820892       0.47998901      -0.61251449      -0.30632485
H        0.48101403      -2.04060617      -0.00375932       0.01937731       0.13556451      -0.26904205       0.04826614       0.06562145       0.32895362
H        0.27288554      -1.73905533       2.42003977      -0.11492381      -0.05414889      -0.09752952      -0.03489104       0.45345943      -0.09540424
H       -0.61516574      -3.27517470       2.58114206      -0.18008766       0.01521450      -0.16136124       0.28093296       0.21598524      -0.20555772
9
Properties=species:S:1:pos:R:3:momenta:R:3:forces:R:3 R1=H R2=H R3=CH3 R4=CH3 leaving_group=Cl nucleophile=Cl rxn=sn2 config=rcc label=H_H_CH3_CH3_Cl_Cl_sn2_rcc conformation=0 reactant_id=H_H_CH3_CH3_Cl_none_-_r product_id=H_H_CH3_CH3_none_Cl_sn2_pc mp2_author_energy=-29302.391748605172 mp2_my_energy=0 hash=59123 address=T id=71 energy=-17370.24142228079 pbc="F F F"
C        0.05651873      -3.67869293       1.02697563       0.04529837      -0.74038100      -0.41703019       0.90118000       0.25229759      -0.48778728
C       -0.73387656      -2.70255767       1.85720854      -0.07035676       0.18080494      -0.62034490       0.33707384       0.53186168       0.33921406
H       -1.05727245      -1.79130195       1.27276743       0.17435813      -0.16316103       0.07714927      -0.06068610      -1.19681748       0.43813149
F        1.93052261      -2.85907573       2.33362438      -0.21263582      -0.99559879       1.21736280       0.42863490       0.15871247       0.17712893
Cl      -1.11816126      -4.60797737      -0.15441163      -0.47074313      -0.88993566       0.59159751      -0.26772370       0.36056009      -0.25732132
H        0.52765239      -4.51324936       1.52825838      -0.01536129      -0.12606664       0.02452851      -0.13867428       0.42274786       0.47673043
H        0.86085018      -3.13513371       0.49399766       0.11278960       0.16114776      -0.23426646      -0.73504204      -0.61756883       0.01781790
H        0.11536877      -2.35816222       2.51509398      -0.01234863      -0.13163796       0.08644636      -0.67843482      -0.36816512      -0.29267322
H       -1.53931389      -3.19153440       2.44103108       0.15501982      -0.20507223       0.04644840       0.21367221       0.45637173      -0.41124098
9
Properties=species:S:1:pos:R:3:momenta:R:3:forces:R:3 R1=H R2=H R3=CH3 R4=CH3 leaving_group=Cl nucleophile=Cl rxn=sn2 config=rcc label=H_H_CH3_CH3_Cl_Cl_sn2_rcc conformation=0 reactant_id=H_H_CH3_CH3_Cl_none_-_r product_id=H_H_CH3_CH3_none_Cl_sn2_pc mp2_author_energy=-29302.391748605172 mp2_my_energy=0 hash=59123 address=T id=71 energy=-17369.952701194823 pbc="F F F"
C       -0.00869955      -4.83538696       1.35192881      -0.67004594      -0.43519115       0.44633172       0.56542104      -0.88724580       3.47038615
C       -0.22890587      -3.35578274       1.54379854       0.36313017      -0.00101913      -0.03810501      -0.63778779      -0.79352282      -0.86932713
H        0.21232950      -2.80277781       0.69829114       0.16006125      -0.00893129      -0.03006571      -0.73058403       0.32985127       0.40190329
F        1.33529457      -4.70575579       3.29934777      -0.15006404      -1.67288149       1.18378522      -0.67169231      -0.04011489      -1.21861260
Cl      -1.23698676      -5.45102709       0.00795288      -0.42707372      -2.02423974      -0.46746322      -0.50326899       0.14155158      -0.46187069
H       -0.23359384      -5.32426474       2.33034081      -0.07524929      -0.03583484       0.05555956       0.12397303       0.03385419      -1.32903278
H        0.91308119      -5.22840965       0.94290860       0.16195790      -0.29348439      -0.05931341       0.18754319       0.65185459       0.34344896
H        0.28541664      -3.20991658       2.45794426      -0.06490125      -0.11470091       0.17570085       1.29857403       0.30774118       0.72265166
H       -1.28391682      -3.18631868       1.85387557       0.23818113      -0.00656770      -0.04811296       0.36782184       0.25603069      -1.05954684
9
Properties=species:S:1:pos:R:3:momenta:R:3:forces:R:3 R1=H R2=H R3=CH3 R4=CH3 leaving_group=Cl nucleophile=Cl rxn=sn2 config=rcc label=H_H_CH3_CH3_Cl_Cl_sn2_rcc conformation=0 reactant_id=H_H_CH3_CH3_Cl_none_-_r product_id=H_H_CH3_CH3_none_Cl_sn2_pc mp2_author_energy=-29302.391748605172 mp2_my_energy=0 hash=59123 address=T id=71 energy=-17370.124371978 pbc="F F F"
C       -0.32174490      -6.01526641       1.88500714      -0.48886406       0.64654798      -0.48905611       0.08461604       1.00320644       0.92167268
C        0.57811348      -4.83439947       1.60421059       0.00091838      -0.87909076       0.23419104      -1.44331951       1.64214390      -0.40016864
H        1.37856212      -4.98878137       0.87101125       0.08468490       0.03432549       0.00117056      -0.28997004      -0.34455934       0.16787434
F        0.60709402      -6.01660781       3.91644630      -0.57360361      -0.94952959      -0.04503361      -0.19260138      -0.21406640      -0.24065749
Cl      -1.30065344      -6.10723219       0.09873612       0.51593799      -0.95704461       0.97451545      -0.30534440      -0.23100364      -0.14231181
H       -1.08159231      -5.84031504       2.66012662      -0.04941343      -0.12335313       0.09246533       0.39962209      -0.12914814      -0.85196081
H        0.11324290      -6.97707540       1.91693266       0.00606395      -0.32431710       0.11020367       0.37389413      -0.67865962       0.13596131
H        0.97287619      -4.56355013       2.58584796       0.16414499      -0.19806656      -0.00000197       0.10710400      -0.05684136      -0.24541234
H       -0.10881265      -4.00472950       1.18922939       0.06441791       0.02143756      -0.15452536       1.26599907      -0.99107184       0.65500276
9
Properties=species:S:1:pos:R:3:momenta:R:3:forces:R:3 R1=H R2=H R3=CH3 R4=CH3 leaving_group=Cl nucleophile=Cl rxn=sn2 config=rcc label=H_H_CH3_CH3_Cl_Cl_sn2_rcc conformation=0 reactant_id=H_H_CH3_CH3_Cl_none_-_r product_id=H_H_CH3_CH3_none_Cl_sn2_pc mp2_author_energy=-29302.391748605172 mp2_my_energy=0 hash=59123 address=T id=71 energy=-17370.063560033614 pbc="F F F"
C       -0.43420729      -6.85782533       2.23888314       0.21397180      -0.15077464       0.18731910      -0.51269486       2.57026372      -0.97848434
C        0.88102002      -6.32234234       1.83575555       0.13266196      -0.93448322       0.39759948       1.61924578       0.49510452       0.01126233
H        1.36024795      -6.93534877       1.06470528      -0.06007754      -0.13227832       0.18373240       0.01410591      -0.28445060       0.34821860
F        0.04722696      -6.84461446       4.25428116      -0.26360684      -0.60054157       0.24139812       0.41660849      -0.26494069       1.00151405
Cl      -1.26951385      -6.56097983       0.19023447      -0.18643204      -0.66449587      -0.31299610      -0.57694000      -0.18446349      -0.74351419
H       -1.12432306      -6.16436597       2.65548594       0.14620105      -0.09445458       0.05721001      -0.35119477      -0.00370884       0.09873295
H       -0.69654519      -7.85313173       2.22500373      -0.28188909      -0.20105885      -0.05359261      -0.16463774      -1.87504171       0.15469997
H        1.47774482      -6.29005267       2.77199997       0.01073254      -0.01467672      -0.03750352      -0.23913168       0.12068632      -0.76818155
H        0.82463122      -5.32790412       1.32761506       0.01423402       0.07860775       0.05680047      -0.20536111      -0.57344923       0.87575218
9
Properties=species:S:1:pos:R:3:momenta:R:3:forces:R:3 R1=H R2=H R3=CH3 R4=CH3 leaving_group=Cl nucleophile=Cl rxn=sn2 config=rcc label=H_H_CH3_CH3_Cl_Cl_sn2_rcc conformation=0 reactant_id=H_H_CH3_CH3_Cl_none_-_r product_id=H_H_CH3_CH3_none_Cl_sn2_pc mp2_author_energy=-29302.391748605172 mp2_my_energy=0 hash=59123 address=T id=71 energy=-17370.23258944405 pbc="F F F"
C       -0.53205095      -7.39196338       2.63696061      -0.15217541      -0.78655041       0.24405874       1.92687368       1.19579830       1.14295508
C        0.68837975      -8.08747297       2.21828641      -0.38291484      -1.15438969      -0.06843268       0.79663660      -1.74266004      -0.02035828
H        0.38490794      -8.85925384       1.47548636      -0.06115817      -0.08221689       0.26880746       0.54843414       0.33436664       0.56132303
F       -0.32928878      -7.78684865       4.56752620      -0.30153288      -0.03733159      -0.56929216       0.01943876       0.14049144      -0.60691909
Cl      -1.14835502      -7.09588773       0.23926813       0.67119722      -0.44903295       1.00383901      -0.08883042       0.26926615       0.01665474
H       -0.46239231      -6.35089971       2.85678240      -0.13087344      -0.21237949       0.03572752      -0.40430103       0.39298563      -0.14991224
H       -1.42364379      -7.86085747       2.62797545      -0.02289360      -0.20522736      -0.09568131      -2.57867158      -1.13210614       0.01355130
H        1.17382837      -8.56313946       3.11774467       0.12294261      -0.14471080      -0.09581661      -0.50907333       0.60200823      -0.96949476
H        1.35147161      -7.38825087       1.71679838      -0.05793182      -0.04949552       0.10476716       0.28949318      -0.06015022       0.01220022
9
Properties=species:S:1:pos:R:3:momenta:R:3:forces:R:3 R1=H R2=H R3=CH3 R4=CH3 leaving_group=Cl nucleophile=Cl rxn=sn2 config=rcc label=H_H_CH3_CH3_Cl_Cl_sn2_rcc conformation=0 reactant_id=H_H_CH3_CH3_Cl_none_-_r product_id=H_H_CH3_CH3_none_Cl_sn2_pc mp2_author_energy=-29302.391748605172 mp2_my_energy=0 hash=59123 address=T id=71 energy=-17370.56236616858 pbc="F F F"
C       -0.63017747      -8.52978040       2.91555320       0.56907356      -0.37661136      -0.10584813       1.61197196       1.11257428       0.75124866
C       -0.14287597      -9.84976330       2.55589785      -0.66896840      -0.40797753       0.25521022       0.53810863      -1.02317454      -0.56846970
H       -0.85726641     -10.57610917       2.99152268       0.01951943      -0.02806399       0.00010097       0.35887413       0.11859334      -0.62912621
F       -0.63541879      -8.68618033       4.74985130      -0.60268973      -0.94827128       0.24394043       0.08207231      -0.18278292      -0.37425075
Cl      -0.81770723      -7.65526287       0.48940198       0.38145546      -1.36190018       0.39354921      -0.12132389       0.19622003      -0.67313523
H       -0.01872293      -7.64541050       2.80597613       0.09276697       0.16044862       0.05932913       0.02515895      -0.32997348       0.40912722
H       -1.63363506      -8.37646555       2.80547216       0.20579327       0.03279108       0.27463532      -2.34858855       0.64183194      -0.04768473
H        0.81275447     -10.04223955       3.04085175      -0.25198318       0.03716733      -0.13831221       0.16834895       0.00730707       0.03147563
H       -0.01206418      -9.88144387       1.44583390      -0.02795856       0.09128452      -0.23956580      -0.31462249      -0.54059573       1.10081512
9
Properties=species:S:1:pos:R:3:momenta:R:3:forces:R:3 R1=H R2=H R3=CH3 R4=CH3 leaving_group=Cl nucleophile=Cl rxn=sn2 config=rcc label=H_H_CH3_CH3_Cl_Cl_sn2_rcc conformation=0 reactant_id=H_H_CH3_CH3_Cl_none_-_r product_id=H_H_CH3_CH3_none_Cl_sn2_pc mp2_author_energy=-29302.391748605172 mp2_my_energy=0 hash=59123 address=T id=71 energy=-17371.008822768785 pbc="F F F"
C       -0.75625345      -9.42332705       3.25515853      -0.60609834       0.16117127       0.69151021       1.93051010      -0.83989815       0.56988771
C       -1.25426256     -10.67165477       2.69118180      -1.10910616      -1.49984846       0.13757329      -0.06992361      -1.83213402       0.47670116
H       -2.30766777     -10.85084175       2.94272324       0.12054404       0.04433229      -0.06070204       0.19795014       0.15184159       0.05414001
F       -0.79531720      -9.86769897       4.92421906      -0.03651017      -1.12142302       0.05766112      -0.18917370      -0.16015375       0.41414102
Cl      -0.43175073      -8.46026866       0.76794068       1.07477680      -0.50812474      -0.29200810       0.07645479       0.30590735      -0.17857986
H        0.30235632      -9.22147571       3.24323272       0.21756904       0.06681621      -0.19244083       0.01149127      -0.00604225      -0.41680729
H       -1.33101397      -8.58465704       3.33670549       0.12737688       0.01035263       0.05782668      -1.48977432       2.00888834      -0.07153441
H       -0.65868531     -11.47879850       3.19251472       0.10994588      -0.10393201       0.08364845      -0.53780486       0.52248636      -0.54238676
H       -1.14047385     -10.71028142       1.61984764      -0.20621081      -0.09517946       0.32488110       0.07027018      -0.15089549      -0.30556160
9
Properties=species:S:1:pos:R:3:momenta:R:3:forces:R:3 R1=H R2=H R3=CH3 R4=CH3 leaving_group=Cl nucleophile=Cl rxn=sn2 config=rcc label=H_H_CH3_CH3_Cl_Cl_sn2_rcc conformation=0 reactant_id=H_H_CH3_CH3_Cl_none_-_r product_id=H_H_CH3_CH3_none_Cl_sn2_pc mp2_author_energy=-29302.391748605172 mp2_my_energy=0 hash=59123 address=T id=71 energy=-17370.932912685792 pbc="F F F"
C       -0.85954147     -10.68067647       3.38764239      -0.23631152      -0.27267004       0.16096481       1.24975319       0.02253974       0.30893669
C       -2.20824017     -11.11714369       2.91412221      -0.24655272      -0.74057114       0.40309650      -0.27831825       0.49172640      -1.21338661
H       -2.99305511     -10.47790927       3.34158657       0.01385513       0.05733745       0.08057103       0.16584806      -0.42667880       0.34545390
F       -1.04859417     -10.99782665       5.08956635      -0.49110848      -1.17099170       0.18975345       0.24317478      -0.26870853      -0.80462681
Cl      -0.06069303      -9.28256647       1.10380830       0.51774541      -0.88142695       0.04649915      -0.17340907      -0.30754799       0.18575447
H        0.04111840     -11.29907377       3.07536703       0.25126895      -0.28800749       0.11870148      -1.45887952       0.90087769       0.71932421
H       -0.64750761      -9.61797944       3.53384167       0.10630541       0.01564002      -0.14763212      -0.20980837      -0.62280702      -0.32667294
H       -2.37815055     -12.18481437       3.08174867      -0.20537486       0.36042667      -0.00052635      -0.03108999       0.14671744       0.47552053
H       -2.33428421     -10.97889659       1.82746469      -0.00514777      -0.00290846      -0.07601632       0.49272916       0.06388105       0.30969656
9
Properties=species:S:1:pos:R:3:momenta:R:3:forces:R:3 R1=H R2=H R3=CH3 R4=CH3 leaving_group=Cl nucleophile=Cl rxn=sn2 config=rcc label=H_H_CH3_CH3_Cl_Cl_sn2_rcc conformation=0 reactant_id=H_H_CH3_CH3_Cl_none_-_r product_id=H_H_CH3_CH3_none_Cl_sn2_pc mp2_author_energy=-29302.391748605172 mp2_my_energy=0 hash=59123 address=T id=71 energy=-17370.669086239486 pbc="F F F"
C       -1.04545249     -11.66433421       3.81899553      -0.25616288      -0.78370211      -0.07903931       1.58521419       0.56021033       1.98191504
C       -2.36372095     -11.15908789       3.35701098       0.50161351       0.75592284       0.36131736      -0.11191409       1.24188570       1.29600865
H       -2.90752072     -10.67147166       4.27226341       0.06128043      -0.19466882      -0.23243307       0.99205599      -0.89026673      -1.78664219
F       -1.77255519     -12.78134710       4.94489425      -0.61432914      -1.27939027      -0.18371127       0.20131747       0.27166997       0.41667321
Cl       0.19177042     -10.58077808       1.50991164       0.25598264      -2.07609746       0.80501691      -0.30715721      -0.21288822       0.64229705
H       -0.52536861     -12.48663497       3.38342587      -0.03392516      -0.07736305      -0.02026636       0.07857605       0.12111817      -0.84596348
H       -0.34441150     -11.03711279       4.52823642      -0.10738816      -0.24224227       0.18861203      -1.92187674      -1.15922112      -1.66014560
H       -2.93890949     -11.98846184       2.98943650      -0.11774640      -0.21885422       0.04565368      -0.39993574      -0.49988594       0.05199214
H       -2.21687353     -10.47385521       2.54040700      -0.13220569      -0.26737408       0.27770539      -0.11627992       0.56737783      -0.09613481
9
Properties=species:S:1:pos:R:3:momenta:R:3:forces:R:3 R1=H R2=H R3=CH3 R4=CH3 leaving_group=Cl nucleophile=Cl rxn=sn2 config=rcc label=H_H_CH3_CH3_Cl_Cl_sn2_rcc conformation=0 reactant_id=H_H_CH3_CH3_Cl_none_-_r product_id=H_H_CH3_CH3_none_Cl_sn2_pc mp2_author_energy=-29302.391748605172 mp2_my_energy=0 hash=59123 address=T id=71 energy=-17370.843000999972 pbc="F F F"
C       -1.53227133     -12.88069407       3.61126046      -0.08406033      -0.69673191      -0.06807377       1.86142794      -0.90286516       1.79902907
C       -2.13479543     -11.57865020       3.96577831       0.11334251       0.13541878       0.00491297      -2.31524225      -0.77710650      -0.41130063
H       -2.01639787     -11.43988149       5.02332286       0.10109495      -0.01711096       0.07265210       0.00422728       0.10285255       0.57879274
F       -2.37477816     -13.86801099       4.75313025      -0.40695818      -1.14678062      -0.14423164      -0.61826041      -0.23431307       0.40298035
Cl       0.37693191     -11.67928299       2.06298357      -0.26427185      -1.33653587       0.91228821      -0.06796117      -0.06366298      -0.05202735
H       -1.86073718     -13.43725686       2.79363858      -0.07502569       0.09243321       0.09216297      -0.34166641      -0.39659962      -1.47144082
H       -0.54137265     -13.23514098       4.00756782       0.03194473       0.05213875       0.00129465      -1.08198946       1.15328786      -0.70325024
H       -3.28457342     -11.59088184       3.72230074      -0.05599143       0.05081094      -0.02581292       2.21759055      -0.01533076       0.43658902
H       -1.64977841     -10.81342935       3.42715222       0.36053528       0.10087047      -0.11160891       0.34187391       1.13373767      -0.57937214
9
Properties=species:S:1:pos:R:3:momenta:R:3:forces:R:3 R1=H R2=H R3=CH3 R4=CH3 leaving_group=Cl nucleophile=Cl rxn=sn2 config=rcc label=H_H_CH3_CH3_Cl_Cl_sn2_rcc conformation=0 reactant_id=H_H_CH3_CH3_Cl_none_-_r product_id=H_H_CH3_CH3_none_Cl_sn2_pc mp2_author_energy=-29302.391748605172 mp2_my_energy=0 hash=59123 address=T id=71 energy=-17370.94460419876 pbc="F F F"
C       -1.63361528     -13.54718076       3.80012308      -0.10676421      -0.46368478       0.13290445       0.01629255       0.29134332       1.82480278
C       -1.86526304     -12.26996158       4.58363151       0.44825090       0.02382301       0.17880374       3.91551657       0.23051288       0.38269073
H       -1.42288172     -12.35299774       5.63210013       0.06377368      -0.03951644       0.17180910      -0.81929290      -0.06491832      -1.21931488
F       -2.96452187     -14.50022169       4.34010357      -0.97196532      -1.21859528      -0.39013269      -0.11247683      -0.14479765       0.34154826
Cl       0.42809857     -12.54022471       2.40901234       0.02613754      -1.34722998       0.41799616       0.25447812       0.11081579      -0.11392343
H       -1.91977421     -13.53655945       2.79672855       0.26739096       0.26415648       0.24212413      -0.00524719      -0.05663142      -1.35571561
H       -0.78534654     -14.16512987       4.10295740      -0.01801492       0.05740498       0.00007439      -0.48481159       0.19163644      -0.38849175
H       -2.87189145     -12.00349656       4.63303249      -0.04849972       0.01405399      -0.03203392      -1.79241557       0.25958068      -0.00186321
H       -1.24188975     -11.46141384       4.09261505       0.06164067      -0.04263979       0.00852107      -0.97204316      -0.81754173       0.53026712
9
Properties=species:S:1:pos:R:3:momenta:R:3:forces:R:3 R1=H R2=H R3=CH3 R4=CH3 leaving_group=Cl nucleophile=Cl rxn=sn2 config=rcc label=H_H_CH3_CH3_Cl_Cl_sn2_rcc conformation=0 reactant_id=H_H_CH3_CH3_Cl_none_-_r product_id=H_H_CH3_CH3_none_Cl_sn2_pc mp2_author_energy=-29302.391748605172 mp2_my_energy=0 hash=59123 address=T id=71 energy=-17370.983412819078 pbc="F F F"
C       -1.95201302     -14.30451344       3.76224060      -0.21743399       0.16866827       0.38270934       0.53189627      -1.58370316       1.46855790
C       -1.63570312     -13.80785907       5.12148647       0.50696683      -0.85905995      -0.41490744      -1.80779798       2.11734414      -0.06860616
H       -1.60446770     -14.57672353       5.83495799      -0.00899739      -0.06669392       0.00114778       0.09286161      -1.23615243       0.95388272
F       -3.51456965     -14.94966418       4.10320091      -1.03957492      -0.33277289      -0.02646780      -0.25539232      -0.02228396       0.04579126
Cl       0.52967567     -13.64480184       2.92978258       0.73069726      -0.88288637       0.57128126       0.12826537       0.06085943      -0.17200447
H       -2.22070893     -13.56600018       3.09477989      -0.26915728      -0.15224591       0.00552227      -0.29321165       1.03775094      -1.72553133
H       -1.48077380     -15.21729486       3.42677701       0.13253092      -0.18825415      -0.00731272      -0.06788872       0.31481384      -0.27246410
H       -2.51771101     -13.13039455       5.40993765      -0.06789848      -0.01689343       0.03382858       1.18663324      -0.91411739      -0.28759569
H       -0.73431155     -13.22690487       5.13412099       0.00262819       0.05116405       0.05872813       0.48463418       0.22548859       0.05796987
9
Properties=species:S:1:pos:R:3:momenta:R:3:forces:R:3 R1=H R2=H R3=CH3 R4=CH3 leaving_group=Cl nucleophile=Cl rxn=sn2 config=rcc label=H_H_CH3_CH3_Cl_Cl_sn2_rcc conformation=0 reactant_id=H_H_CH3_CH3_Cl_none_-_r product_id=H_H_CH3_CH3_none_Cl_sn2_pc mp2_author_energy=-29302.391748605172 mp2_my_energy=0 hash=59123 address=T id=71 energy=-17370.894551647318 pbc="F F F"
C       -2.10482218     -15.18633479       4.01050055      -0.57772540       0.04478560       0.44024176       0.22836132      -0.87154871      -1.62357980
C       -1.93151484     -15.79988851       5.34280699      -0.24432719      -0.83559882       0.53168218       0.71414267      -1.61910424      -1.19054867
H       -2.45937530     -16.77924732       5.16539713      -0.05310385      -0.34928676      -0.22241590       0.90721758       0.54954530       0.77184251
F       -3.84723444     -15.23718718       3.98836751      -1.17866857      -0.38316499      -0.25069607       0.74982899      -0.11072420      -0.11060363
Cl       0.62755963     -14.90050613       3.49819743       1.20567456      -2.23092926       0.68697331      -0.52275007      -0.05870811       0.16271861
H       -2.01476227     -14.12871680       3.87806669       0.15210812      -0.21001317      -0.00918962       0.24072549       0.20165960      -0.13527226
H       -1.81454278     -15.85329932       3.14030245       0.19565299      -0.12500010      -0.21664898      -0.56321722       1.25674175       1.08866454