9
Properties=species:S:1:pos:R:3:momenta:R:3:forces:R:3 R1=H R2=H R3=CH3 R4=CH3 leaving_group=Cl nucleophile=Cl rxn=sn2 config=rcc label=H_H_CH3_CH3_Cl_Cl_sn2_rcc conformation=0 reactant_id=H_H_CH3_CH3_Cl_none_-_r product_id=H_H_CH3_CH3_none_Cl_sn2_pc mp2_author_energy=-29302.391748605172 mp2_my_energy=0 hash=59123 address=T id=71 energy=-17370.412368016237 pbc="F F F"
C        0.12542541       0.11270554      -0.00029240      -0.29396800       0.52385721       0.62789496      -0.09214561       1.11788396      -0.00082481
C        1.62503867       0.00847468       0.00156754      -0.24764223       0.21114561      -0.44816672      -0.06338950      -0.85342640       0.00215309
H        1.99473018      -0.50605055       0.89354482      -0.09879923       0.13719101      -0.27703435       0.00320508       0.00300841       0.00517082
F        0.89788639       2.64149152      -0.00442372       0.32205917      -0.38944711      -1.36294900      -0.23271315      -0.10403772      -0.00076135
Cl      -0.69504884      -1.53494042       0.00509220       1.51644199       1.05829402       1.40848674       0.38207948      -0.16174994      -0.00050876
H       -0.22306082       0.64592326      -0.87549887       0.21789022      -0.05258390      -0.14252241      -0.00302890      -0.00293595      -0.00472561
H       -0.22431889       0.65275656       0.87018381      -0.14061276      -0.19809235      -0.16111067      -0.00396382      -0.00350204       0.00469305
H        1.88822962       1.08069343      -0.00059746       0.23052962      -0.15583057      -0.18574165       0.00778691       0.00253743      -0.00033365
H        1.99700981      -0.51031959      -0.88698835      -0.12687724       0.25385561      -0.11156705       0.00216950       0.00222225      -0.00486279
9
Properties=species:S:1:pos:R:3:momenta:R:3:forces:R:3 R1=H R2=H R3=CH3 R4=CH3 leaving_group=Cl nucleophile=Cl rxn=sn2 config=rcc label=H_H_CH3_CH3_Cl_Cl_sn2_rcc conformation=0 reactant_id=H_H_CH3_CH3_Cl_none_-_r product_id=H_H_CH3_CH3_none_Cl_sn2_pc mp2_author_energy=-29302.391748605172 mp2_my_energy=0 hash=59123 address=T id=71 energy=-17370.29322323189 pbc="F F F"
C        0.56958673       0.54235652      -0.16899950       1.02987268      -0.14544452      -0.19367878       2.20198253       0.27590285       0.63642596
C        1.63978652       0.05924731      -1.14624254       0.09764851      -0.04101720      -0.65273117      -0.43149806      -0.25250136       1.20235616
H        2.56750096      -0.31197570      -0.68698976       0.30008530       0.05907437      -0.17217110      -0.42592330      -0.01230728       0.05293513
F        0.95348067       2.79745426      -1.51983302      -0.25643153       0.25774758      -1.15382677      -0.14625122      -0.80742526       0.49756410
Cl       0.02142580      -0.87034969       0.94989127       0.43852538       1.40807940       1.53424783       0.53107283       0.24623703      -0.46295966
H       -0.30283187       0.80707933      -0.67305176       0.04517364      -0.15481376      -0.04382146      -1.11849698       0.86987689      -0.68508827
H        0.99088359       1.32194781       0.48001418       0.04466236      -0.10833539       0.02461080      -0.63881950      -0.22688612      -0.37195595
H        1.82510695       0.94983094      -1.71389463      -0.12787892       0.19259733       0.00823709       0.15696429       0.90898375      -0.28928133
H        1.19816036      -0.65984273      -1.79465514      -0.22265546      -0.10972177       0.01063209      -0.12903060      -1.00188049      -0.57999613
9
Properties=species:S:1:pos:R:3:momenta:R:3:forces:R:3 R1=H R2=H R3=CH3 R4=CH3 leaving_group=Cl nucleophile=Cl rxn=sn2 config=rcc label=H_H_CH3_CH3_Cl_Cl_sn2_rcc conformation=0 reactant_id=H_H_CH3_CH3_Cl_none_-_r product_id=H_H_CH3_CH3_none_Cl_sn2_pc mp2_author_energy=-29302.391748605172 mp2_my_energy=0 hash=59123 address=T id=71 energy=-17370.264104883132 pbc="F F F"
C        1.20713481       1.13205820      -0.48336696      -0.13788358      -0.14821900      -0.26094874       0.14778366      -1.17824897       1.26620108
C        0.79927297      -0.12968153      -1.15991579      -0.41529427       0.11259306      -0.30848740      -0.52747156      -0.71712660      -0.85963434
H        1.61065644      -0.89192501      -1.13368570      -0.11689748      -0.15471787       0.19805044      -0.57457927       0.32888700       0.03331157
F        0.79717066       2.11527522      -2.86755791      -0.15291331      -0.86562186      -1.02123878      -0.11277501       0.47894045      -1.02163942
Cl       1.41017369       0.55269395       1.25279974       2.40405972       2.22472801       0.95359841       0.42854739       0.57459311       0.29452945
H        0.38230005       1.80877795      -0.54129651       0.09848131      -0.03725067      -0.05849573      -0.08010650       0.67883042       0.11235673
H        2.11003171       1.56158201      -0.93888956       0.14833082       0.12785866      -0.16230515      -0.34875546      -0.10813737       0.54389238
H        0.66530579       0.29990071      -2.18011048      -0.20780017       0.25841661      -0.15224650      -0.17604509      -0.54036007       0.19460702
H       -0.16480649      -0.55137208      -0.72200847       0.09199109       0.20591767       0.00172486       1.24340184       0.48262203      -0.56362447
9
Properties=species:S:1:pos:R:3:momenta:R:3:forces:R:3 R1=H R2=H R3=CH3 R4=CH3 leaving_group=Cl nucleophile=Cl rxn=sn2 config=rcc label=H_H_CH3_CH3_Cl_Cl_sn2_rcc conformation=0 reactant_id=H_H_CH3_CH3_Cl_none_-_r product_id=H_H_CH3_CH3_none_Cl_sn2_pc mp2_author_energy=-29302.391748605172 mp2_my_energy=0 hash=59123 address=T id=71 energy=-17370.307460698386 pbc="F F F"
C        1.57194415       1.30330159      -0.85344888       1.09512861       0.22699837       0.17467847       0.10006021       1.72173524       0.17165927
C        0.36953614       0.63466037      -0.27308367      -0.14703192       0.64899191       0.86506122      -0.09888531       0.45481735      -2.03389495
H        0.67645285      -0.11684015       0.40971747       0.03446989       0.11383121      -0.01235365       0.03888808      -1.05610166       0.55124191
F        0.75854832       0.95299208      -3.16518515      -0.07202552      -0.99914817       0.39251914      -0.22685347      -0.19795152       0.12469465
Cl       2.58566346       1.91581464       0.65085215       0.05565650       1.25949092      -2.15638306      -0.05872860      -0.27572263      -0.10126403
H        1.34368194       2.22397217      -1.41208651       0.24900836       0.08174647       0.02854436       0.11953934      -0.82109717       0.24018749
H        2.17987637       0.65411243      -1.43452616       0.07007179       0.00097211      -0.38480504       0.54117936      -0.29006915      -0.30443471
H       -0.13036533       0.28034795      -1.21809184       0.24825045       0.01405751       0.23915849       0.27494119       0.16210079       1.01699948
H       -0.19746969       1.37754839       0.25070159       0.05835423       0.25575606       0.10011990      -0.69014079       0.30228876       0.33481089
9
Properties=species:S:1:pos:R:3:momenta:R:3:forces:R:3 R1=H R2=H R3=CH3 R4=CH3 leaving_group=Cl nucleophile=Cl rxn=sn2 config=rcc label=H_H_CH3_CH3_Cl_Cl_sn2_rcc conformation=0 reactant_id=H_H_CH3_CH3_Cl_none_-_r product_id=H_H_CH3_CH3_none_Cl_sn2_pc mp2_author_energy=-29302.391748605172 mp2_my_energy=0 hash=59123 address=T id=71 energy=-17370.184716025105 pbc="F F F"
C        2.04351457       1.63207993      -1.04401909       0.12150475       0.49635521       0.17546413      -1.41477583       1.46172953      -1.52400190
C        0.70485065       2.06665445      -0.41222878       0.32833173       0.93842479       0.15800521       1.07597100      -1.69140047      -0.21334462
H        0.68262777       1.90408229       0.67399706      -0.07724914       0.15282141      -0.10702723       0.14333009       0.40198637      -0.18018120
F        0.80531060      -0.18495606      -1.80108350       0.68205842      -0.73844866       1.31240973       0.15710950       0.02009867      -0.05941550
Cl       3.37314783       2.95183949      -0.49592450       0.74502635       0.77307141      -2.17362653      -0.07835901       0.28440397       0.07864906
H        1.96233535       1.77126266      -2.16218158      -0.04764918      -0.09862172       0.00880518       0.45398307      -0.51747326       1.51695869
H        2.49966388       0.74707644      -0.70795701       0.17428265       0.02067090      -0.00264847      -0.03113585      -0.96661598       0.11556362
H        0.10153299       1.25972546      -0.89040436      -0.37565704       0.03213422      -0.17302353      -0.05122124       0.61249096       0.17761220
H        0.46824664       3.07310484      -0.71658851       0.05644522       0.04160354       0.04098160      -0.25490175       0.39478021       0.08815966
9
Properties=species:S:1:pos:R:3:momenta:R:3:forces:R:3 R1=H R2=H R3=CH3 R4=CH3 leaving_group=Cl nucleophile=Cl rxn=sn2 config=rcc label=H_H_CH3_CH3_Cl_Cl_sn2_rcc conformation=0 reactant_id=H_H_CH3_CH3_Cl_none_-_r product_id=H_H_CH3_CH3_none_Cl_sn2_pc mp2_author_energy=-29302.391748605172 mp2_my_energy=0 hash=59123 address=T id=71 energy=-17370.105101192326 pbc="F F F"
C        2.56057023       1.95643504      -0.85753087      -0.13895075       0.64253544       0.27561632       0.73282029      -0.62311318      -1.63140955
C        1.22150629       2.57565926      -0.97657129       0.75002533      -0.35240779      -0.02801236      -1.11254691       0.21139593       0.34153441
H        1.16481573       3.65313640      -0.75863476       0.17057034       0.00189105      -0.26634647       0.17256886      -0.42068401       0.16680829
F        1.53900605       0.37963610       0.15554450       0.50652683       0.81631401       1.09868406      -0.04538098      -0.71497196       0.38525328
Cl       3.66922808       3.42300685      -1.92283420       0.14102048       0.21939202      -2.29122061       0.16514615       0.01330686      -0.04276650
H        2.73867223       1.10251351      -1.57730729       0.11857017       0.19729077      -0.04236946       0.00933193       1.14063300       1.35168620
H        3.11691933       2.02646575       0.06950457      -0.01049005       0.16038788       0.30008297      -0.23834378      -0.19837485      -0.23729458
H        0.59110055       1.93191225      -0.35494357      -0.13769055      -0.02818651       0.18037581       0.07583071       0.46457424       0.43811797
H        0.79957136       2.42150465      -1.95469429       0.13903648      -0.10814640       0.04494024       0.24057373       0.12723397      -0.77192953
9
Properties=species:S:1:pos:R:3:momenta:R:3:forces:R:3 R1=H R2=H R3=CH3 R4=CH3 leaving_group=Cl nucleophile=Cl rxn=sn2 config=rcc label=H_H_CH3_CH3_Cl_Cl_sn2_rcc conformation=0 reactant_id=H_H_CH3_CH3_Cl_none_-_r product_id=H_H_CH3_CH3_none_Cl_sn2_pc mp2_author_energy=-29302.391748605172 mp2_my_energy=0 hash=59123 address=T id=71 energy=-17370.220968696343 pbc="F F F"
C        3.12620059       2.78317730      -0.82111313       0.34373272      -0.21826072       0.60228955       1.07470381      -1.86624473       1.54986841
C        1.74894543       2.28460975      -1.05760747       0.36237397       0.07035721      -0.18166085      -1.01591013       0.82064429       0.53319474
H        1.22227423       2.96806765      -1.72230477      -0.04569871      -0.20486372       0.00685313      -0.21662244       0.08558432       0.01481296
F        2.92040488       2.57027934       1.13327718       1.06461256       1.89476817       0.03742863       0.12392557       0.09238167      -0.30526179
Cl       3.65266923       3.22214947      -2.98733368      -0.25909687      -0.34466477      -1.56225010       0.09531903      -0.17240845      -0.43531103
H        3.92151208       1.99680672      -0.67813556       0.18749602      -0.05535103       0.20119792      -0.76876200       1.48452991      -0.45355030
H        3.29834144       3.80976420      -0.65683531      -0.13193554       0.32838484       0.03963220       0.34975841       0.67430353       0.35794421
H        1.22423041       2.23601250      -0.05406271      -0.09540917       0.05830732       0.00940054       0.67859847      -0.30512875      -1.28843124
H        1.82751573       1.36072839      -1.59549366       0.11451902       0.02238229       0.11792433      -0.32101071      -0.81366177       0.02673403
9
Properties=species:S:1:pos:R:3:momenta:R:3:forces:R:3 R1=H R2=H R3=CH3 R4=CH3 leaving_group=Cl nucleophile=Cl rxn=sn2 config=rcc label=H_H_CH3_CH3_Cl_Cl_sn2_rcc conformation=0 reactant_id=H_H_CH3_CH3_Cl_none_-_r product_id=H_H_CH3_CH3_none_Cl_sn2_pc mp2_author_energy=-29302.391748605172 mp2_my_energy=0 hash=59123 address=T id=71 energy=-17370.757132588766 pbc="F F F"
C        3.60358985       3.76666732      -0.95880199       0.34767812       0.58035305       0.46224674       0.73565253       0.51046022      -1.09747562
C        3.25590746       2.40237674      -0.44270059       1.40889902       0.10585800       0.89971884       1.36109256       0.16681569       0.77645309
H        2.32883503       2.13802361      -0.88112542       0.06223594       0.19977233      -0.00951317      -1.13071011      -0.45882718       0.06091374
F        3.78430388       4.61548556       0.57316540       0.42438733       1.36754934      -0.58325484      -0.08014386       0.04427016       0.17011360
Cl       3.43570135       2.77238365      -3.38556096      -0.55857148      -1.22142096      -1.72409932       0.04895131       0.27986830       0.24518819
H        4.65120835       3.96347126      -1.31089811      -0.17870971       0.10564413       0.04258623      -1.54006431      -0.18760379       0.17398439
H        2.76919698       4.35261549      -1.38651563      -0.01611563       0.37504535      -0.06169177       0.97550479      -0.33292806       0.19872897
H        3.26502748       2.45826863       0.67224021       0.10758111      -0.11978574       0.07829825      -0.25383818      -0.21647781      -0.85216015
H        3.97378063       1.65491907      -0.81203992      -0.01960386       0.19548355       0.14892334      -0.11644473       0.19442248       0.32425377
9
Properties=species:S:1:pos:R:3:momenta:R:3:forces:R:3 R1=H R2=H R3=CH3 R4=CH3 leaving_group=Cl nucleophile=Cl rxn=sn2 config=rcc label=H_H_CH3_CH3_Cl_Cl_sn2_rcc conformation=0 reactant_id=H_H_CH3_CH3_Cl_none_-_r product_id=H_H_CH3_CH3_none_Cl_sn2_pc mp2_author_energy=-29302.391748605172 mp2_my_energy=0 hash=59123 address=T id=71 energy=-17371.398933433 pbc="F F F"
C        4.07169689       4.41028767      -1.35069495       0.83185174       0.04463209      -0.59213738      -0.11420377      -0.36889562       1.48000817
C        4.97500225       3.51576248      -0.55799825       0.08023595       0.68950863      -0.36033273       0.78947774      -0.82220038      -0.95957331
H        4.67370023       3.46238408       0.47346505       0.40123154       0.38340993      -0.10896821      -0.52838280      -0.08327326       0.41456609
F        4.26125969       5.77557574      -0.53668362       0.05437235      -0.31356226      -1.34867605      -0.17037669       0.41088968       0.26089448
Cl       3.22351197       2.39767895      -3.04601485       0.26034735       0.39399437       1.61080899       0.20462176       0.27144967       0.26337078
H        4.39729193       4.72670597      -2.28561914      -0.29214916       0.13753288       0.31267362       0.46793119       0.11006499      -1.65747461
H        3.01677018       4.23211882      -1.30236232      -0.02546645       0.08116261      -0.05834020      -0.22148408      -0.06664639       0.08630211
H        5.98873858       3.95109312      -0.52387235       0.09265552      -0.03581345      -0.18225419      -0.34078008      -0.02835117      -0.27960533
H        5.02967231       2.50815964      -1.01387340       0.00285788       0.03462274       0.06177668      -0.08680327       0.57696248       0.39151163
9
Properties=species:S:1:pos:R:3:momenta:R:3:forces:R:3 R1=H R2=H R3=CH3 R4=CH3 leaving_group=Cl nucleophile=Cl rxn=sn2 config=rcc label=H_H_CH3_CH3_Cl_Cl_sn2_rcc conformation=0 reactant_id=H_H_CH3_CH3_Cl_none_-_r product_id=H_H_CH3_CH3_none_Cl_sn2_pc mp2_author_energy=-29302.391748605172 mp2_my_energy=0 hash=59123 address=T id=71 energy=-17371.70020707615 pbc="F F F"
C        4.44224997       4.99744993      -1.73119144       0.77451385       0.55334960      -0.40330625       0.65552161      -0.41138577      -0.65018239
C        5.84059442       4.34156184      -1.89794695       0.05002492      -0.07489507      -0.63248266      -0.67874892       1.27052493       1.81253159
H        6.49668727       5.01877631      -1.32392476       0.10465780      -0.17234362      -0.06803473       0.12825807      -0.31019284      -0.34863503
F        4.65024445       6.46104226      -1.83651860      -0.05844595       0.64923728      -1.26468325       0.19056841      -0.62984938       0.00093365
Cl       3.46375767       2.41714402      -2.09484016       0.73221328       0.05035384       1.50449559      -0.32467220      -0.41935518       0.10459340
H        3.78181233       4.72861950      -2.52776096      -0.14043198       0.11505673      -0.10544304      -0.31671674       0.38715772      -0.31874569
H        3.92701041       4.86500857      -0.79060303      -0.02436874       0.21318925       0.48974171       0.31426169      -0.23100562       0.23204587
H        6.12072521       4.34073344      -2.93857993      -0.10793361       0.01594356      -0.19207281       0.20134606      -0.10947376      -0.34993549
H        5.89508218       3.34058575      -1.43913854       0.14971662       0.14010824      -0.02869376      -0.16981797       0.45357991      -0.48260590
9
Properties=species:S:1:pos:R:3:momenta:R:3:forces:R:3 R1=H R2=H R3=CH3 R4=CH3 leaving_group=Cl nucleophile=Cl rxn=sn2 config=rcc label=H_H_CH3_CH3_Cl_Cl_sn2_rcc conformation=0 reactant_id=H_H_CH3_CH3_Cl_none_-_r product_id=H_H_CH3_CH3_none_Cl_sn2_pc mp2_author_energy=-29302.391748605172 mp2_my_energy=0 hash=59123 address=T id=71 energy=-17371.70831836662 pbc="F F F"
C        4.92522164       5.39091238      -2.49471365      -0.14602056      -0.91673850      -1.11897696      -0.14321794       0.73125327       0.81047782
C        5.98192167       4.66592535      -3.33516305       0.15176012       0.92530719      -0.85033373      -0.52132779       0.57024698       0.87286130
H        6.81275199       5.36139397      -3.59976649      -0.03946530       0.28495863      -0.11314657      -0.56225907      -0.51962983       0.49490526
F        4.82112776       6.64995225      -3.04350057       0.65335193      -0.35638671      -0.69916442      -0.44904907      -0.36922246      -0.07595224
Cl       4.10159948       3.01467648      -1.01233774       1.10249957       1.66367985       2.16664261       0.16502038      -0.03192024       0.02692485
H        3.91111245       4.87715217      -2.49809726      -0.06002521      -0.12151496      -0.02660568       1.65765884       1.02083128      -0.06203977
H        5.28194345       5.59449726      -1.43851365       0.14608079      -0.07809640       0.19110132      -0.58032354      -0.76823620      -1.10840625
H        5.46998197       4.38385160      -4.24146864       0.08069870       0.12668426      -0.12688001       0.14903577      -0.43052057      -0.48689977
H        6.28094996       3.81090817      -2.72980074      -0.35396310       0.01745058      -0.14913418       0.28446242      -0.20280223      -0.47187120
9
Properties=species:S:1:pos:R:3:momenta:R:3:forces:R:3 R1=H R2=H R3=CH3 R4=CH3 leaving_group=Cl nucleophile=Cl rxn=sn2 config=rcc label=H_H_CH3_CH3_Cl_Cl_sn2_rcc conformation=0 reactant_id=H_H_CH3_CH3_Cl_none_-_r product_id=H_H_CH3_CH3_none_Cl_sn2_pc mp2_author_energy=-29302.391748605172 mp2_my_energy=0 hash=59123 address=T id=71 energy=-17371.67941642781 pbc="F F F"
C        4.97569184       5.41035522      -3.19735771      -0.49074553       0.09712527      -0.22097035      -1.06966629       2.48494804       3.04893720
C        5.46508070       4.27071009      -3.94763227      -0.36780790      -0.32225385       0.23708276      -0.11873240      -1.49532089      -0.50469988
H        6.44104312       4.52422928      -4.33867526       0.15273644      -0.02101146       0.27275798       0.31271311      -0.31968114      -0.30291655
F        4.94499137       6.55143608      -3.97930784       0.38090492       0.09798904      -0.38564469       0.07021059      -1.10713169       0.50088883
Cl       5.19834835       4.19896603      -0.43930866       1.76588086       1.67374780      -0.21079921      -0.11420915       0.06069528      -0.61480645
H        3.93586235       5.23645450      -2.80671557      -0.02031337      -0.07488358      -0.24416414       0.90915703       0.16691423      -0.39201567
H        5.59273822       5.61621142      -2.26397853      -0.00262984       0.02553423      -0.03779179      -0.73260833      -0.11247065      -1.73332356
H        4.76723998       3.94211279      -4.73639529      -0.10604419      -0.18930168       0.09831632       0.34705812       0.39246433       0.00506480
H        5.50659975       3.45849195      -3.22107379      -0.10816087      -0.07494744      -0.07857194       0.39607731      -0.07041751      -0.00712872
9
Properties=species:S:1:pos:R:3:momenta:R:3:forces:R:3 R1=H R2=H R3=CH3 R4=CH3 leaving_group=Cl nucleophile=Cl rxn=sn2 config=rcc label=H_H_CH3_CH3_Cl_Cl_sn2_rcc conformation=0 reactant_id=H_H_CH3_CH3_Cl_none_-_r product_id=H_H_CH3_CH3_none_Cl_sn2_pc mp2_author_energy=-29302.391748605172 mp2_my_energy=0 hash=59123 address=T id=71 energy=-17371.647162509456 pbc="F F F"
C        5.12920565       5.64495972      -3.32672188       0.21100309       0.65709993      -0.01855076       0.16007933      -0.16329014      -0.39279027
C        4.84460471       4.13601652      -3.23831790      -0.00850690       0.01339176       1.12013359       1.39541621       0.54456367       1.19330223
H        5.63346934       3.61752712      -3.80491415      -0.07249138      -0.15556294       0.16440913      -0.62688693       0.03629339      -0.32956502
F        5.06587038       5.88260003      -4.67765484      -0.00751497      -0.94211070      -0.19583615      -0.49529418       0.48094702      -0.22448183
Cl       6.30599887       5.48414329      -0.77840058       1.32979805       1.95834747      -1.78860381       0.27330746       0.09589894       0.93582096
H        4.29755685       6.22569447      -2.81313565       0.29090964       0.19378909      -0.04027205       1.37191095      -0.46501438      -0.52031983
H        6.16603213       5.96185260      -3.04645029      -0.08337459      -0.00347811       0.06574120      -1.53473165      -0.40003390       0.02013322
H        3.82991664       3.97197829      -3.56778578      -0.17422280       0.09059329      -0.15666803      -0.13950974      -0.31560953      -0.41676976
H        4.98026218       3.78362843      -2.20748803       0.16220761      -0.15306814       0.06971647      -0.40429145       0.18624493      -0.26532971
9
Properties=species:S:1:pos:R:3:momenta:R:3:forces:R:3 R1=H R2=H R3=CH3 R4=CH3 leaving_group=Cl nucleophile=Cl rxn=sn2 config=rcc label=H_H_CH3_CH3_Cl_Cl_sn2_rcc conformation=0 reactant_id=H_H_CH3_CH3_Cl_none_-_r product_id=H_H_CH3_CH3_none_Cl_sn2_pc mp2_author_energy=-29302.391748605172 mp2_my_energy=0 hash=59123 address=T id=71 energy=-17371.810017508174 pbc="F F F"
C        5.43347681       5.48355626      -3.53544661       0.69908699      -0.87068381      -0.80714603       1.20711653       1.29156187       0.70572526
C        4.54863665       4.87090921      -2.46519916      -0.48731245       0.27295800      -0.09314423       0.51833290      -0.83509054      -0.45359504
H        4.56035053       3.79044690      -2.61929126      -0.15669951      -0.17006399      -0.18128478       0.21615992      -0.22433719      -0.04969079
F        5.10328952       4.98016963      -4.76439966      -0.29030639      -0.36055616       0.78587301      -0.47693532      -0.19308163      -0.00808946
Cl       7.20606714       6.63665822      -1.40954741       1.92938734       2.44670168      -0.40186568      -0.42051195      -0.23035102      -0.53125805
H        5.37299374       6.58712550      -3.60178040      -0.06099981      -0.13509637      -0.00303353      -0.33429435      -0.49090650       0.24225459
H        6.48926592       5.30122174      -3.37958248      -0.29802042      -0.14205430      -0.06879187      -0.02495935      -0.32580498       0.26138001
H        3.51256782       5.13068072      -2.62641479      -0.04345967       0.14277135       0.08368223      -0.35603688       0.55920314       0.27706074
H        4.93784616       5.03840381      -1.45313794       0.04013788       0.15688486       0.05534474      -0.32887148       0.44880685      -0.44378726
9
Properties=species:S:1:pos:R:3:momenta:R:3:forces:R:3 R1=H R2=H R3=CH3 R4=CH3 leaving_group=Cl nucleophile=Cl rxn=sn2 config=rcc label=H_H_CH3_CH3_Cl_Cl_sn2_rcc conformation=0 reactant_id=H_H_CH3_CH3_Cl_none_-_r product_id=H_H_CH3_CH3_none_Cl_sn2_pc mp2_author_energy=-29302.391748605172 mp2_my_energy=0 hash=59123 address=T id=71 energy=-17371.660166828817 pbc="F F F"
C        5.85803847       5.34594649      -3.22798986      -0.16503707       0.48363138       0.98077650       1.03468654       3.21131643       1.55874365
C        4.76394759       5.87820563      -2.34739540       1.12802405       0.39488278      -0.12883998       0.15535309       2.01131005       0.30216136
H        4.23960889       4.99087922      -2.03920295       0.03649239       0.07210573       0.01997759      -0.79007502      -0.08210242       0.35517228
F        5.28914890       4.35058027      -3.89204081       0.51149605      -0.34521361       0.56403590      -1.55891109      -2.74680826      -2.56063418
Cl       7.71806241       7.46409207      -2.45388688      -0.17821669       0.69103954      -2.49770123      -0.10252790      -0.09413681       0.04256817
H        6.23823829       6.13295173      -3.86890428       0.16372891      -0.19556513       0.13797343       0.10839047      -0.35172734      -0.36711237
H        6.65537461       4.92337680      -2.67195206      -0.08771379       0.09237180       0.26128284       1.00563245      -0.12204773       0.72102217
H        4.15687842       6.63674612      -2.91313852       0.22250708       0.31812579      -0.04431229       0.07011205      -1.16276835       0.30567666
H        5.15036094       6.47725275      -1.49943351      -0.04884733       0.08180511      -0.04218068       0.07733942      -0.66303556      -0.35759774
9
Properties=species:S:1:pos:R:3:momenta:R:3:forces:R:3 R1=H R2=H R3=CH3 R4=CH3 leaving_group=Cl nucleophile=Cl rxn=sn2 config=rcc label=H_H_CH3_CH3_Cl_Cl_sn2_rcc conformation=0 reactant_id=H_H_CH3_CH3_Cl_none_-_r product_id=H_H_CH3_CH3_none_Cl_sn2_pc mp2_author_energy=-29302.391748605172 mp2_my_energy=0 hash=59123 address=T id=71 energy=-17371.7437814048 pbc="F F F"
C        6.32443661       5.68151557      -2.72630955       0.59133790       0.63756559       0.29499650       0.06271610       0.22044840       0.31143567
C        5.18380963       6.64642910      -2.61763853      -0.12725425       0.12145213       0.01608307      -0.46348811       0.55671424       0.43518094
H        4.49372056       6.35979307      -1.76415590      -0.03832637       0.11681197       0.01138950       0.90892921       0.21512435      -0.97527886
F        5.84678928       4.41964539      -2.57975729       0.05035013      -0.00212192       0.87942241      -0.81128800      -1.34011408       0.58349073
Cl       7.94089312       7.85713018      -3.64553062       0.58835037       0.49551302      -1.52526473       0.30057633       0.18785078      -0.08465444
H        6.88624868       5.62971351      -3.62050305       0.08090652      -0.16165529      -0.10375216       0.22344275       0.74540242      -1.05523302
H        7.01772511       5.91009092      -1.94845078       0.19732276       0.08639068      -0.01774975       0.58923879      -0.13688953       0.75269962
H        4.62863393       6.70704638      -3.55643657      -0.19128573      -0.13644219      -0.11230250      -0.20202062      -0.03460505       0.10597727
H        5.64929909       7.63175818      -2.42587140      -0.10585467      -0.10486469       0.06230583      -0.60810644      -0.41393154      -0.07361792
9
Properties=species:S:1:pos:R:3:momenta:R:3:forces:R:3 R1=H R2=H R3=CH3 R4=CH3 leaving_group=Cl nucleophile=Cl rxn=sn2 config=rcc label=H_H_CH3_CH3_Cl_Cl_sn2_rcc conformation=0 reactant_id=H_H_CH3_CH3_Cl_none_-_r product_id=H_H_CH3_CH3_none_Cl_sn2_pc mp2_author_energy=-29302.391748605172 mp2_my_energy=0 hash=59123 address=T id=71 energy=-17371.682393473868 pbc="F F F"
C        6.82161754       6.38201748      -2.46553764       0.07168739       0.33971525      -0.24620288       0.20521779      -2.85571291      -0.43352673
C        5.41415856       6.82330279      -2.73725133      -0.24257108       0.20458536      -0.42756431      -0.64371644       0.03219735       1.54435205
H        4.98923333       7.11246834      -1.72036790       0.09456788       0.08516752       0.13140733       0.14492276      -0.70575907      -1.05960997
F        6.77737362       5.52531226      -1.36213995       1.13434661       1.16263649       1.31851384       0.16063265       1.58533072      -1.44037583
Cl       8.06666250       7.83590631      -4.76049595       0.39027949       0.05938079      -1.53171978      -0.35957241      -0.25761664       0.50544127
H        7.25449466       5.76860926      -3.30150810       0.03386754      -0.29016769      -0.22265589      -0.46983044       0.78621137       0.72024045
H        7.44574825       7.21318146      -2.31685178       0.16475893       0.04268777       0.18044727       1.03900526       0.86678355       0.69736981