9
Properties=species:S:1:pos:R:3:momenta:R:3:forces:R:3 R1=H R2=H R3=CH3 R4=CH3 leaving_group=Cl nucleophile=Cl rxn=sn2 config=rcc label=H_H_CH3_CH3_Cl_Cl_sn2_rcc conformation=0 reactant_id=H_H_CH3_CH3_Cl_none_-_r product_id=H_H_CH3_CH3_none_Cl_sn2_pc mp2_author_energy=-29302.391748605172 mp2_my_energy=0 hash=59123 address=T id=71 energy=-17370.412368016237 pbc="F F F"
C        0.12542541       0.11270554      -0.00029240       1.15795815       0.41744945       0.80088115      -0.09214561       1.11788396      -0.00082481
C        1.62503867       0.00847468       0.00156754       0.37812962      -0.47074516       0.30904154      -0.06338950      -0.85342640       0.00215309
H        1.99473018      -0.50605055       0.89354482       0.11644641      -0.04723338       0.04825974       0.00320508       0.00300841       0.00517082
F        0.89788639       2.64149152      -0.00442372       1.17017750      -1.51049330       0.41132614      -0.23271315      -0.10403772      -0.00076135
Cl      -0.69504884      -1.53494042       0.00509220      -0.48966491      -1.73295803      -0.84521889       0.38207948      -0.16174994      -0.00050876
H       -0.22306082       0.64592326      -0.87549887      -0.21880737      -0.09230922       0.16508346      -0.00302890      -0.00293595      -0.00472561
H       -0.22431889       0.65275656       0.87018381       0.15640102      -0.15288715       0.03978651      -0.00396382      -0.00350204       0.00469305
H        1.88822962       1.08069343      -0.00059746       0.23743363      -0.06173870      -0.11974374       0.00778691       0.00253743      -0.00033365
H        1.99700981      -0.51031959      -0.88698835      -0.37353658      -0.12198876       0.08152739       0.00216950       0.00222225      -0.00486279
9
Properties=species:S:1:pos:R:3:momenta:R:3:forces:R:3 R1=H R2=H R3=CH3 R4=CH3 leaving_group=Cl nucleophile=Cl rxn=sn2 config=rcc label=H_H_CH3_CH3_Cl_Cl_sn2_rcc conformation=0 reactant_id=H_H_CH3_CH3_Cl_none_-_r product_id=H_H_CH3_CH3_none_Cl_sn2_pc mp2_author_energy=-29302.391748605172 mp2_my_energy=0 hash=59123 address=T id=71 energy=-17370.314793936872 pbc="F F F"
C        0.91910341      -1.17541676       0.46432036      -0.39821655      -0.47892169       0.17994772       1.18373505      -0.83133689       0.08943408
C        2.17942998      -1.91407708       0.04326958       1.01212354      -0.41961227      -0.19401630      -0.17806664      -0.89490702      -0.88839236
H        2.28657825      -2.85573253       0.57038221       0.10969706      -0.11427575      -0.06662751       0.05073010      -0.16122071       0.41576953
F        2.60800588       0.73943290       1.06522861       0.96518887      -2.22947897       0.48854887       0.46163004       0.37293527       0.18029446
Cl      -0.50200858      -2.13858662      -0.07878559       0.05932172      -0.39643909       0.26016205      -0.47889622      -0.35829601      -0.25234745
H        1.01432405      -0.20166396       0.04778248       0.19161324      -0.11641151       0.00066122      -0.61709262       0.79475599      -0.15719669
H        0.89727612      -1.12265347       1.54508239      -0.07168416      -0.00502943       0.05253159      -0.08877216       0.31727347      -0.03257924
H        3.00621580      -1.23467120       0.26310425      -0.01116316      -0.00044974       0.16964312      -0.21097002       0.13426815       0.11532089
H        2.17587017      -2.22738890      -1.02993369       0.31204364      -0.07306611       0.01444537      -0.12229753       0.62652776       0.52969678
9
Properties=species:S:1:pos:R:3:momenta:R:3:forces:R:3 R1=H R2=H R3=CH3 R4=CH3 leaving_group=Cl nucleophile=Cl rxn=sn2 config=rcc label=H_H_CH3_CH3_Cl_Cl_sn2_rcc conformation=0 reactant_id=H_H_CH3_CH3_Cl_none_-_r product_id=H_H_CH3_CH3_none_Cl_sn2_pc mp2_author_energy=-29302.391748605172 mp2_my_energy=0 hash=59123 address=T id=71 energy=-17370.272288572745 pbc="F F F"
C        1.74679355      -2.46049088       0.82038781      -0.88459442      -0.63100835      -0.93586759      -0.18805591      -0.29509951      -0.00774226
C        2.50427467      -3.56759639       0.11977496      -0.09037332      -0.84557804       0.16531734       0.37833290       0.53736247       0.08413843
H        1.92658351      -4.48792900       0.15248969      -0.04312824       0.03534284      -0.14456087      -0.08485382      -0.07375845      -0.00463062
F        4.05714507      -1.94590959       2.03499302       1.33298699      -1.83760581       1.11389589      -1.08590115      -0.35633468      -0.59438378
Cl       0.03569897      -2.60356683      -0.03598208       1.94772558      -0.62959817       0.78240641       0.38311656       0.22868254       0.35509992
H        2.02032760      -1.41839600       0.70837011       0.15710523      -0.10117764       0.02932674       0.48406547      -0.42117279      -0.14913704
H        1.54612535      -2.68564546       1.85209398       0.03997875      -0.09633770       0.06887787       0.11339362       0.07641500       0.26906662
H        3.45962395      -3.71567064       0.63085166       0.00448031      -0.08000830       0.00732963      -0.06790626       0.40268883       0.08959073
H        2.66967976      -3.29327805      -0.92355966      -0.04959097      -0.08194013      -0.07888988       0.06780859      -0.09878340      -0.04200199
9
Properties=species:S:1:pos:R:3:momenta:R:3:forces:R:3 R1=H R2=H R3=CH3 R4=CH3 leaving_group=Cl nucleophile=Cl rxn=sn2 config=rcc label=H_H_CH3_CH3_Cl_Cl_sn2_rcc conformation=0 reactant_id=H_H_CH3_CH3_Cl_none_-_r product_id=H_H_CH3_CH3_none_Cl_sn2_pc mp2_author_energy=-29302.391748605172 mp2_my_energy=0 hash=59123 address=T id=71 energy=-17370.342679458467 pbc="F F F"
C        2.46957409      -3.75525041       1.06080204       0.93598526      -0.60824765       0.30312816      -0.34230245       1.88571721      -0.33243807
C        2.80099321      -4.94016064       0.22631868      -0.40932527      -0.09520120       0.00051542       0.18067657      -1.05714993       0.83971621
H        2.00034831      -5.70272611       0.27917282       0.01278427       0.01044360      -0.00102582       0.29264573       0.35398758      -0.05460343
F        4.45361355      -4.55608441       2.46500176       0.54635774      -1.87045856       0.66518426       0.58689821      -0.24101568       0.47189984
Cl       0.99083161      -2.90606866       0.24695863       0.54385495      -0.57548164      -0.31319770       0.13688009      -0.20480276       0.28615704
H        3.24392973      -2.97402328       1.16178485       0.06574283      -0.04112370       0.10187506      -0.28147514      -0.70013029      -0.61137239
H        2.26786743      -3.98416091       2.10054358       0.14975074       0.06490041       0.04694446      -0.42359255      -0.36778209      -0.20772021
H        3.67643378      -5.27285006       0.81148468       0.03096082       0.04890753      -0.05652249      -0.03610875      -0.22428800      -0.09958944
H        3.08566092      -4.79097488      -0.80532237      -0.14195342       0.00104829      -0.02307410      -0.11362173       0.55546395      -0.29204954
9
Properties=species:S:1:pos:R:3:momenta:R:3:forces:R:3 R1=H R2=H R3=CH3 R4=CH3 leaving_group=Cl nucleophile=Cl rxn=sn2 config=rcc label=H_H_CH3_CH3_Cl_Cl_sn2_rcc conformation=0 reactant_id=H_H_CH3_CH3_Cl_none_-_r product_id=H_H_CH3_CH3_none_Cl_sn2_pc mp2_author_energy=-29302.391748605172 mp2_my_energy=0 hash=59123 address=T id=71 energy=-17370.279983659235 pbc="F F F"
C        3.08152165      -4.75890485       1.15189500       0.71375383      -0.60848700       0.76860271       1.94780759      -0.72912758       2.82253658
C        2.92561873      -5.95359854       0.29174743       0.23011611      -1.28561292      -0.40922468      -1.33770963      -0.73717061      -0.14987069
H        1.91413365      -6.40420452       0.42195161      -0.14654499      -0.00701740       0.10630102       0.44057333       0.36342382      -0.31823960
F        4.35013874      -6.42050555       2.59346972      -1.10283477      -0.98746908      -0.72141155      -0.26976838       0.56321048      -0.42935545
Cl       2.03647336      -3.32616335       0.65116103       2.41772831      -1.42164291       1.35130861      -0.17856646       0.05025456      -0.69939439
H        4.14778594      -4.46194377       1.18886071       0.07356597       0.17251341      -0.09894007      -0.77178871       0.15409700      -0.17411283
H        2.84147608      -4.99710461       2.19460541       0.10818311       0.09333229      -0.06575191       0.06168773       0.04669477      -0.56137741
H        3.62733264      -6.65819181       0.77169099      -0.03376011      -0.07532138       0.03229364       0.04024795       0.31734791      -0.17500242
H        3.12422637      -5.76048821      -0.75625818       0.13715376      -0.11775369       0.03746661       0.06751658      -0.02873035      -0.31518379
9
Properties=species:S:1:pos:R:3:momenta:R:3:forces:R:3 R1=H R2=H R3=CH3 R4=CH3 leaving_group=Cl nucleophile=Cl rxn=sn2 config=rcc label=H_H_CH3_CH3_Cl_Cl_sn2_rcc conformation=0 reactant_id=H_H_CH3_CH3_Cl_none_-_r product_id=H_H_CH3_CH3_none_Cl_sn2_pc mp2_author_energy=-29302.391748605172 mp2_my_energy=0 hash=59123 address=T id=71 energy=-17370.345065223035 pbc="F F F"
C        3.68664133      -6.12266850       1.58941331      -0.22167476      -0.15725188       0.52947894      -0.90197528       0.59231470      -0.61896260
C        2.87577796      -6.75052524       0.45978887      -0.19474798      -1.40732801       0.09810950       1.58229621      -0.72419189       0.41337165
H        1.90535523      -6.31069173       0.30409786      -0.00960087       0.04767777      -0.18911074      -0.43125413       0.16324398       0.32187660
F        4.07962897      -8.40132116       2.43844404       0.26420477      -2.20165912      -0.06782739      -0.15318218       0.43235842      -0.27730443
Cl       3.57993378      -4.22409242       1.17118099       3.01098981      -0.28938662       0.93517018       0.04121191      -0.12903299       0.07074965
H        4.72985135      -6.30756198       1.62926878      -0.05698999      -0.14529935      -0.11316914       0.54477878      -0.47565935      -0.31898219
H        3.28699227      -6.19191211       2.57348262      -0.21268191       0.02381965      -0.22044165      -0.44673931      -0.24320506       0.35451086
H        2.86695553      -7.82004733       0.73484217      -0.16596590      -0.13518161      -0.08816879      -0.16601780       0.39116962       0.00124177
H        3.43812226      -6.63306014      -0.47377365       0.00124251      -0.00363049       0.12387216      -0.06911821      -0.00699743       0.05349870
9
Properties=species:S:1:pos:R:3:momenta:R:3:forces:R:3 R1=H R2=H R3=CH3 R4=CH3 leaving_group=Cl nucleophile=Cl rxn=sn2 config=rcc label=H_H_CH3_CH3_Cl_Cl_sn2_rcc conformation=0 reactant_id=H_H_CH3_CH3_Cl_none_-_r product_id=H_H_CH3_CH3_none_Cl_sn2_pc mp2_author_energy=-29302.391748605172 mp2_my_energy=0 hash=59123 address=T id=71 energy=-17370.26418618692 pbc="F F F"
C        4.11426080      -7.19229963       1.88117536       0.54564982      -1.42606633       0.22022426      -1.05125882       0.17588308       0.14488866
C        3.11871650      -7.22013423       0.77129764       0.43739550      -0.14212072       0.37241715       0.36823056      -0.57250275      -0.86863536
H        2.49191820      -6.34165339       0.81497579      -0.18175051      -0.20130553       0.07972016      -0.14235667       0.42717429      -0.22157475
F        3.69067415      -9.56098383       2.08575488      -0.62177994       0.54400939      -0.31847026       0.02022658       0.88255567       0.02823283
Cl       4.90704971      -5.41073743       1.68833581       1.68244444      -2.95292501       0.92068131      -0.10894466      -0.04602516       0.22212722
H        4.91936136      -7.84600552       1.84580334       0.26342755       0.00211335      -0.24119968       1.02159509      -1.06363137      -0.22364885
H        3.64180699      -7.20834649       2.84284040       0.07331503      -0.05216674      -0.03001304       0.05458705       0.06471289       0.47732946
H        2.49722797      -8.11587258       0.89987373       0.09629148      -0.09692463      -0.12236988       0.54661596       0.01162010       0.06920815
H        3.68944266      -7.27233975      -0.18547522       0.07404334       0.13799254       0.10783188      -0.70869509       0.12021325       0.37207264
9
Properties=species:S:1:pos:R:3:momenta:R:3:forces:R:3 R1=H R2=H R3=CH3 R4=CH3 leaving_group=Cl nucleophile=Cl rxn=sn2 config=rcc label=H_H_CH3_CH3_Cl_Cl_sn2_rcc conformation=0 reactant_id=H_H_CH3_CH3_Cl_none_-_r product_id=H_H_CH3_CH3_none_Cl_sn2_pc mp2_author_energy=-29302.391748605172 mp2_my_energy=0 hash=59123 address=T id=71 energy=-17370.157782126775 pbc="F F F"
C        4.80346328      -8.52042699       1.87445505       0.18352437      -0.61251421       1.03600253       1.09072532       2.40020460       0.49151585
C        3.68689385      -7.68931088       1.25644769       0.06911865      -0.08660968       0.48190651      -0.23394238      -0.57329456      -0.22435489
H        3.07686072      -7.26015305       2.04316991       0.13981012      -0.01705419      -0.18377952      -0.13415791       0.18868231       0.24234591
F        3.30269068     -10.23463240       1.77278211       0.66414905       0.27889410      -0.68139502      -1.57531419      -2.05656686      -0.20635007
Cl       6.26287783      -7.24603671       2.34989771       1.23462785      -3.39168236       0.16423777      -0.15238893       0.14578331      -0.29518927
H        5.27470562      -9.20358981       1.21134149      -0.08181606      -0.13925587      -0.12118266       0.30017919      -0.32898301      -0.39849718
H        4.60260702      -8.96837623       2.83522895      -0.00845990       0.00313869       0.22647800      -0.23070257       0.15485650      -0.31600752
H        3.06999909      -8.45845162       0.75093660       0.02075004      -0.03427792      -0.08926789       0.33920162       0.38192826       0.41208365
H        3.93879504      -6.88786777       0.54958402       0.06167032      -0.03661980       0.12006726       0.59639985      -0.31261055       0.29445352
9
Properties=species:S:1:pos:R:3:momenta:R:3:forces:R:3 R1=H R2=H R3=CH3 R4=CH3 leaving_group=Cl nucleophile=Cl rxn=sn2 config=rcc label=H_H_CH3_CH3_Cl_Cl_sn2_rcc conformation=0 reactant_id=H_H_CH3_CH3_Cl_none_-_r product_id=H_H_CH3_CH3_none_Cl_sn2_pc mp2_author_energy=-29302.391748605172 mp2_my_energy=0 hash=59123 address=T id=71 energy=-17370.164764196783 pbc="F F F"
C        5.30213969      -9.65614595       2.09914049       0.44134339      -0.22163285       0.93441687       1.17519852      -0.02751693       1.83074714
C        4.65955022      -8.29525514       2.08245625      -0.44376380      -0.55660720       0.45943999      -0.76744919      -0.27002030      -0.48927619
H        4.96349553      -7.63613960       2.90429168       0.10321913      -0.20216636      -0.19453004       0.15594098      -0.27421171      -0.16978111
F        3.33874628     -10.42290544       1.36189172       0.64184343       0.46437606      -0.59854412      -1.55944400      -0.73995065      -0.62747517
Cl       7.16040523      -9.14985440       2.77236223       1.56189530      -3.56070497       0.14330965       0.25271807      -0.10770065      -0.17583569
H        5.45637201     -10.21482021       1.19285126       0.20050234      -0.13117452      -0.00762204       0.09148291       0.50566123      -0.17879064
H        5.01009884     -10.34846374       2.88682496      -0.08050576       0.08083273       0.12778695      -0.03797162       0.44927512      -0.19340522
H        3.55863616      -8.47118938       2.09282483      -0.09947267      -0.00622640       0.11232630       0.91866766       0.04005646      -0.18595515
H        4.95477424      -7.86929267       1.11827738       0.07129523      -0.10237943       0.02364148      -0.22914333       0.42440743       0.18977203
9
Properties=species:S:1:pos:R:3:momenta:R:3:forces:R:3 R1=H R2=H R3=CH3 R4=CH3 leaving_group=Cl nucleophile=Cl rxn=sn2 config=rcc label=H_H_CH3_CH3_Cl_Cl_sn2_rcc conformation=0 reactant_id=H_H_CH3_CH3_Cl_none_-_r product_id=H_H_CH3_CH3_none_Cl_sn2_pc mp2_author_energy=-29302.391748605172 mp2_my_energy=0 hash=59123 address=T id=71 energy=-17370.017476901725 pbc="F F F"
C        5.87204939     -10.59077641       2.20505296       0.12667574      -0.95851138       0.07694988       2.07420948      -1.42394008      -0.32309038
C        5.79398149      -9.30447019       2.94245553       0.36606195      -0.60209416      -0.07080975      -3.07745975      -0.12428463      -0.24540810
H        6.07780609      -9.41767865       3.96107974      -0.12726802      -0.11963994      -0.08422054       0.46947916      -0.03000278       0.91900672
F        3.96059520     -10.31388149       1.23112286       0.69468804       0.43328617       0.37974203      -1.28700474       0.36244204      -0.66418356
Cl       7.76350716     -11.32694697       3.12052147       0.95928851      -3.12195542       0.53773068      -0.03966020       0.09220825      -0.29762799
H        6.16423046     -10.62837708       1.14568963       0.21599246       0.04420651       0.02447951      -0.06549426       0.24501762       0.95511336
H        5.35255381     -11.49566077       2.52639448       0.02419146      -0.08099436      -0.07792603       0.07370551       0.89126459       0.16059389
H        4.68448248      -9.08759726       2.91071773       0.12214111       0.12682357      -0.01308923       1.13688886      -0.22728105       0.02765708
H        6.24950442      -8.44507752       2.49757976       0.06073201      -0.03837053       0.24662984       0.71533596       0.21457605      -0.53206101
9
Properties=species:S:1:pos:R:3:momenta:R:3:forces:R:3 R1=H R2=H R3=CH3 R4=CH3 leaving_group=Cl nucleophile=Cl rxn=sn2 config=rcc label=H_H_CH3_CH3_Cl_Cl_sn2_rcc conformation=0 reactant_id=H_H_CH3_CH3_Cl_none_-_r product_id=H_H_CH3_CH3_none_Cl_sn2_pc mp2_author_energy=-29302.391748605172 mp2_my_energy=0 hash=59123 address=T id=71 energy=-17370.153042815917 pbc="F F F"
C        6.59746194     -11.44210486       2.41486301       0.40885924      -0.29593069      -0.38711767      -1.37806495      -0.48836342      -0.85141531
C        6.71841644     -10.50274105       3.57677496       0.25772436      -0.35125911       0.44942940      -1.70500865       1.08440919      -1.54804136
H        6.37504971     -10.93833947       4.49765948      -0.06916390      -0.01033104      -0.05593985       0.01784775      -0.38885424       0.42356545
F        5.07633089     -10.22504781       1.46669515       1.37291630      -0.54382230       0.98501211       0.98703880      -0.58310232       0.55246295
Cl       7.89164346     -13.03122817       3.23533659      -0.41200252      -1.43544796       0.09410901       0.25583892      -0.00106533      -0.08258302
H        7.14385992     -11.29083048       1.48489541       0.01697300       0.02820819      -0.06710383      -0.12325325       0.17625274       0.63157904
H        5.76029478     -12.13838985       2.32263227      -0.08039039       0.12833061      -0.09673736       0.39686033       0.72417765       0.26987313
H        6.00519069      -9.67668190       3.28133077       0.09061980      -0.31430289      -0.14846348       0.92891639      -0.78026811       0.34409731
H        7.72794980     -10.15351441       3.65406999       0.07562325      -0.14162863      -0.07983033       0.61982466       0.25681384       0.26046182
9
Properties=species:S:1:pos:R:3:momenta:R:3:forces:R:3 R1=H R2=H R3=CH3 R4=CH3 leaving_group=Cl nucleophile=Cl rxn=sn2 config=rcc label=H_H_CH3_CH3_Cl_Cl_sn2_rcc conformation=0 reactant_id=H_H_CH3_CH3_Cl_none_-_r product_id=H_H_CH3_CH3_none_Cl_sn2_pc mp2_author_energy=-29302.391748605172 mp2_my_energy=0 hash=59123 address=T id=71 energy=-17370.17533353454 pbc="F F F"
C        7.16897186     -12.21873416       2.62651668       0.64722137      -1.01188916       0.13555125      -0.08397095       0.42245325      -0.36313012
C        7.41793877     -11.53731074       3.95287732      -0.12193125      -0.42626713      -0.87510370      -0.38177924       1.09077131      -0.95645107
H        6.71701483     -11.91365703       4.68292530       0.16393003      -0.14034415       0.01234594      -0.24866979       0.04586213       0.36507584
F        6.32940243     -10.38878346       1.89901763       1.08004194      -0.36661951       0.92526598       0.08474776      -0.08228541      -0.08953548
Cl       7.84992078     -14.25412663       3.24332812      -0.56312168      -0.91572969       0.14546912      -0.10898864       0.33414219      -0.17295589
H        7.89803368     -12.07244205       1.84579064       0.19604353       0.03876253       0.01821130       0.04321594      -0.12356645       0.15899548
H        6.19357643     -12.49211356       2.25298825       0.10205675      -0.06973464       0.02822840       0.23783352      -0.00440954       0.59984122
H        7.30795251     -10.41889311       3.79296697       0.21677129      -0.20057860       0.30345893      -0.05865720      -1.57430291       0.13192813
H        8.41792666     -11.77221620       4.27006903       0.04028269      -0.02077812       0.04172673       0.51626859      -0.10866456       0.32623189
9
Properties=species:S:1:pos:R:3:momenta:R:3:forces:R:3 R1=H R2=H R3=CH3 R4=CH3 leaving_group=Cl nucleophile=Cl rxn=sn2 config=rcc label=H_H_CH3_CH3_Cl_Cl_sn2_rcc conformation=0 reactant_id=H_H_CH3_CH3_Cl_none_-_r product_id=H_H_CH3_CH3_none_Cl_sn2_pc mp2_author_energy=-29302.391748605172 mp2_my_energy=0 hash=59123 address=T id=71 energy=-17370.060598515454 pbc="F F F"
C        7.81911577     -13.09964432       2.99494167       0.96609504      -0.29328849      -0.34109943      -1.18665184      -1.51526029      -0.46749425
C        8.21907844     -12.77440547       4.35818879       0.55250967      -1.17592409       0.14240469       1.94956862       2.45620518       0.54116349
H        7.38761863     -12.46574672       4.96883267      -0.06322870       0.13258520      -0.14815979      -0.49645530       0.16638375       0.10572569
F        7.87739459     -11.06233234       2.47927642       1.39178230      -1.23945323       1.13883788      -0.01202912       1.46031430      -0.30737842
Cl       7.70111816     -15.28798886       3.14176472      -0.43961344      -1.08080885       0.25092538      -0.09455677      -0.33395143       0.07494055
H        8.47225111     -13.13883549       2.16054777      -0.01602727      -0.00345741      -0.11040021       0.54868711       0.05339166      -0.08680497
H        6.78268582     -12.96063692       2.75272565       0.20894386      -0.03918807       0.16478877      -0.06883783      -0.08273764      -0.23857734
H        8.91743460     -11.87258008       4.27809684      -0.29923357      -0.15023493      -0.22907112      -1.10451989      -1.02159342       0.01856036
H        8.75869184     -13.51485930       4.89136959       0.05621748      -0.31713555       0.11575757       0.46479501      -1.18275212       0.35986489
9
Properties=species:S:1:pos:R:3:momenta:R:3:forces:R:3 R1=H R2=H R3=CH3 R4=CH3 leaving_group=Cl nucleophile=Cl rxn=sn2 config=rcc label=H_H_CH3_CH3_Cl_Cl_sn2_rcc conformation=0 reactant_id=H_H_CH3_CH3_Cl_none_-_r product_id=H_H_CH3_CH3_none_Cl_sn2_pc mp2_author_energy=-29302.391748605172 mp2_my_energy=0 hash=59123 address=T id=71 energy=-17370.138232688743 pbc="F F F"
C        8.58947810     -14.16296021       3.24939080      -0.74367230      -0.63119908      -0.13837990       0.15856894       1.48107110      -0.32690004
C        9.03456854     -14.24945085       4.67771132       0.86776448      -0.65802294       0.12105789       0.71438642       0.49767934       0.07026350
H        8.34410196     -13.69645869       5.31635503      -0.01928850      -0.11742582      -0.01797765      -0.19913438      -0.18271078       0.04216167
F        9.48907805     -12.19806540       3.23912761       1.61572405      -0.66801859       0.29921813      -0.44957493      -0.97182813      -0.07374478
Cl       7.56150318     -16.06434954       3.07357024       0.22973399      -0.72434057      -0.20255360      -0.14324515      -0.60392402      -0.13358568
H        9.29383862     -14.30653134       2.44883160       0.02743738      -0.04065956       0.13772671       0.04903392      -0.03327258       0.17945894
H        7.67192639     -13.66249729       2.97437037       0.11637171      -0.19091612       0.12811653       0.42365687       0.32697901       0.23725428
H       10.00117805     -13.68965701       4.78718762      -0.07121432      -0.27566420       0.24325829      -0.77264444      -0.66654433      -0.36443286
H        9.10132952     -15.29118925       4.98795397      -0.03263250      -0.21157590       0.26024131       0.21895274       0.15255039       0.36952497
9
Properties=species:S:1:pos:R:3:momenta:R:3:forces:R:3 R1=H R2=H R3=CH3 R4=CH3 leaving_group=Cl nucleophile=Cl rxn=sn2 config=rcc label=H_H_CH3_CH3_Cl_Cl_sn2_rcc conformation=0 reactant_id=H_H_CH3_CH3_Cl_none_-_r product_id=H_H_CH3_CH3_none_Cl_sn2_pc mp2_author_energy=-29302.391748605172 mp2_my_energy=0 hash=59123 address=T id=71 energy=-17370.077831886698 pbc="F F F"
C        9.34960221     -15.25875982       3.49492970       0.69705718      -0.04698626       0.49951440      -0.50713360      -0.14291432      -0.30333837
C        9.62722488     -15.81479561       4.86895394       0.22695212      -0.79560582       0.43963831       0.27228742       0.19150575      -0.01850875
H        8.76666542     -15.57774951       5.48390563       0.04308460      -0.02385784      -0.05943014      -0.07032650       0.00085490       0.20720128
F       10.82303920     -13.78084341       3.92955152       1.01585898      -1.54451090       0.18482977       0.43821636       0.44053001      -0.19403260
Cl       7.62002021     -16.46662112       3.07731118       0.19161852      -0.79549943      -0.06589011      -0.28372737      -0.59365997      -0.39678299
H        9.98461318     -15.47512911       2.62899791       0.02805146       0.09840823      -0.04149460      -0.37567733      -0.11021173       0.78685935
H        8.72987199     -14.36974926       3.39910978       0.15979809      -0.08739166       0.19097028       0.68896975      -0.24079900       0.32958095
H       10.47676379     -15.20349287       5.15882980      -0.18153466      -0.14142286      -0.17851507       0.08605556      -0.10524983       0.32791860
H        9.84474988     -16.89343876       4.99118239      -0.13510074      -0.27916417      -0.11572407      -0.24866429       0.55994420      -0.73889747
9
Properties=species:S:1:pos:R:3:momenta:R:3:forces:R:3 R1=H R2=H R3=CH3 R4=CH3 leaving_group=Cl nucleophile=Cl rxn=sn2 config=rcc label=H_H_CH3_CH3_Cl_Cl_sn2_rcc conformation=0 reactant_id=H_H_CH3_CH3_Cl_none_-_r product_id=H_H_CH3_CH3_none_Cl_sn2_pc mp2_author_energy=-29302.391748605172 mp2_my_energy=0 hash=59123 address=T id=71 energy=-17370.085214844068 pbc="F F F"
C       10.08813627     -16.49993080       3.81791112       0.61310155      -0.70583703       0.65474551       0.79246794       0.71416182       0.40331883
C       10.14256413     -17.55518417       4.87145848       0.23845317      -0.60266824      -0.53523050      -0.72000075      -1.97426593      -1.13272578
H        9.56360880     -17.27132620       5.74370485      -0.03627486      -0.18617497      -0.05601221      -0.15372491       0.02463059       0.04958341
F       11.97826707     -15.87422773       4.62204436       0.84952180      -1.45861718       0.39547915      -0.20430697       0.06162948      -0.42152698
Cl       7.98466798     -16.74938957       3.20318404       0.76430070      -0.27471088       0.55695109      -0.11850162      -0.39793379      -0.29853459
H       10.63199142     -16.62610160       2.88117072       0.11292568      -0.32290439      -0.05100706      -0.41343369      -0.08400266       0.41239675
H        9.80227547     -15.50675887       4.08183841       0.08415538      -0.09765223      -0.05129780       0.45232978       0.32542782       0.16450426
H       11.17929589     -17.71734674       5.14816186      -0.31994527      -0.32185194       0.22254223       0.03941677       0.24815773      -0.01040988
H        9.72877390     -18.51737040       4.42239153       0.04638166      -0.18795908      -0.15420084       0.32575347       1.08219494       0.83339397
9
Properties=species:S:1:pos:R:3:momenta:R:3:forces:R:3 R1=H R2=H R3=CH3 R4=CH3 leaving_group=Cl nucleophile=Cl rxn=sn2 config=rcc label=H_H_CH3_CH3_Cl_Cl_sn2_rcc conformation=0 reactant_id=H_H_CH3_CH3_Cl_none_-_r product_id=H_H_CH3_CH3_none_Cl_sn2_pc mp2_author_energy=-29302.391748605172 mp2_my_energy=0 hash=59123 address=T id=71 energy=-17370.035867492184 pbc="F F F"
C       10.63620569     -17.56200144       4.35770874       0.45115244      -0.72251211       0.03000839      -0.83717406       0.63885909      -0.54527185
C       10.39502231     -18.98190282       4.65093216       0.02822067      -0.64098055      -0.37788448      -1.03281015      -0.67052730       0.06700268
H       10.69694559     -19.02591726       5.70521335      -0.03046134       0.01385533       0.03554981      -0.33842165      -0.46468187      -0.25899965
F       12.60566739     -17.91821463       5.02502526       0.53492722      -1.46549760       0.58380650       1.12698874      -0.02571965       0.50603460
Cl       8.64823300     -16.97911366       3.41174590       0.57568443      -0.31256656       0.38777547       0.34722816      -0.11574822       0.17080166
H       11.31746208     -17.23176938       3.62442739       0.19861745       0.01914977       0.04367106       0.05110475      -0.00436994      -0.74901842
H       10.53755031     -16.87719421       5.16015797       0.11825087      -0.08021971      -0.03543184      -0.27812965       0.51185263       0.47734634