9
Properties=species:S:1:pos:R:3:momenta:R:3:forces:R:3 R1=H R2=H R3=CH3 R4=CH3 leaving_group=Cl nucleophile=Cl rxn=sn2 config=rcc label=H_H_CH3_CH3_Cl_Cl_sn2_rcc conformation=0 reactant_id=H_H_CH3_CH3_Cl_none_-_r product_id=H_H_CH3_CH3_none_Cl_sn2_pc mp2_author_energy=-29302.391748605172 mp2_my_energy=0 hash=59123 address=T id=71 energy=-17370.412368016237 pbc="F F F"
C        0.12542541       0.11270554      -0.00029240       0.42366533      -0.29106729       0.48400013      -0.09214561       1.11788396      -0.00082481
C        1.62503867       0.00847468       0.00156754       0.13112431      -0.05832933      -0.79061249      -0.06338950      -0.85342640       0.00215309
H        1.99473018      -0.50605055       0.89354482      -0.01483481      -0.31365209       0.26994914       0.00320508       0.00300841       0.00517082
F        0.89788639       2.64149152      -0.00442372      -0.17541076       0.06874861       0.53331721      -0.23271315      -0.10403772      -0.00076135
Cl      -0.69504884      -1.53494042       0.00509220       0.04494253       0.33555978       2.07832713       0.38207948      -0.16174994      -0.00050876
H       -0.22306082       0.64592326      -0.87549887      -0.11053545       0.02024814       0.08275381      -0.00302890      -0.00293595      -0.00472561
H       -0.22431889       0.65275656       0.87018381      -0.24108201       0.00245035       0.01407131      -0.00396382      -0.00350204       0.00469305
H        1.88822962       1.08069343      -0.00059746       0.01132130       0.05945688      -0.07727334       0.00778691       0.00253743      -0.00033365
H        1.99700981      -0.51031959      -0.88698835      -0.05940095      -0.10495810       0.00049186       0.00216950       0.00222225      -0.00486279
9
Properties=species:S:1:pos:R:3:momenta:R:3:forces:R:3 R1=H R2=H R3=CH3 R4=CH3 leaving_group=Cl nucleophile=Cl rxn=sn2 config=rcc label=H_H_CH3_CH3_Cl_Cl_sn2_rcc conformation=0 reactant_id=H_H_CH3_CH3_Cl_none_-_r product_id=H_H_CH3_CH3_none_Cl_sn2_pc mp2_author_energy=-29302.391748605172 mp2_my_energy=0 hash=59123 address=T id=71 energy=-17370.31687203392 pbc="F F F"
C        0.29619206       0.03517423       1.03467800      -0.35148006      -0.39875500       0.62571605      -0.23434872      -0.04350760       0.18310648
C        0.78571782      -0.25818160      -0.36722837      -0.09728918       0.79010561      -0.28495018      -1.39252216      -0.27972870      -0.64577548
H        1.37587421      -1.18738849      -0.39879773      -0.16994041       0.30767881       0.02675012       0.19481025       0.50923512       0.16170589
F        1.07538254       2.51183991       0.62060847       0.50595121      -0.49813119      -0.01893844       0.15135349       0.05874130      -0.16899734
Cl      -0.49540092      -1.55442499       1.62622838       0.39532582      -0.29456042       2.86650649       0.32398259       0.54157641      -0.04294322
H       -0.41717264       0.86777027       1.11417871      -0.11349864      -0.10321282       0.06281324       0.27724220      -0.62005295      -0.35088358
H        1.13679402       0.33014167       1.66239736       0.09023092      -0.22483722       0.01394435      -0.18106299      -0.40612272       0.15917851
H        1.33530134       0.66593997      -0.63355638      -0.10108013      -0.00592973       0.04705013      -0.29210918      -0.42228611      -0.04504304
H       -0.10657765      -0.48360550      -1.04873044      -0.14508696       0.04995232       0.14233059       1.15265452       0.66214526       0.74965178
9
Properties=species:S:1:pos:R:3:momenta:R:3:forces:R:3 R1=H R2=H R3=CH3 R4=CH3 leaving_group=Cl nucleophile=Cl rxn=sn2 config=rcc label=H_H_CH3_CH3_Cl_Cl_sn2_rcc conformation=0 reactant_id=H_H_CH3_CH3_Cl_none_-_r product_id=H_H_CH3_CH3_none_Cl_sn2_pc mp2_author_energy=-29302.391748605172 mp2_my_energy=0 hash=59123 address=T id=71 energy=-17370.168486474773 pbc="F F F"
C        0.43407494      -0.14678733       1.98313800       0.04932818       0.37656207      -0.00041249      -1.60572727       0.02680623       0.21724985
C       -0.87480761       0.05972153       1.19099193      -0.54603959       0.36047560       1.59340927       4.15046079      -0.09524144      -1.99396885
H       -0.93473315      -0.80261750       0.51284642      -0.16959114      -0.06333457       0.01986172      -0.64086401       0.20820298       0.27271564
F        1.49781454       1.93910668       0.78069946       0.37383257      -0.92234978       0.30890693      -0.16935097      -0.03529608      -0.09610390
Cl      -0.06378284      -1.58004920       3.02731005       0.85365241      -0.52954359       2.51253692       0.47458761      -0.34879798       0.21854061
H        0.66060707       0.68362490       2.64453868      -0.07149193       0.11824561      -0.04869663       0.13026295      -0.06754902      -0.25086463
H        1.28103728      -0.38033833       1.34216281      -0.22698742       0.20305097      -0.14607576      -0.18645750       0.02343630       0.20289151
H       -0.66344289       0.94578178       0.61016899      -0.09715818      -0.14781729      -0.01621547       0.15474033       0.30592168      -0.30395033
H       -1.68387029       0.23591154       1.78561149      -0.14922315       0.13530110       0.10330711      -2.30765194      -0.01748268       1.73349010
9
Properties=species:S:1:pos:R:3:momenta:R:3:forces:R:3 R1=H R2=H R3=CH3 R4=CH3 leaving_group=Cl nucleophile=Cl rxn=sn2 config=rcc label=H_H_CH3_CH3_Cl_Cl_sn2_rcc conformation=0 reactant_id=H_H_CH3_CH3_Cl_none_-_r product_id=H_H_CH3_CH3_none_Cl_sn2_pc mp2_author_energy=-29302.391748605172 mp2_my_energy=0 hash=59123 address=T id=71 energy=-17370.213349385147 pbc="F F F"
C        0.27475209      -0.40427392       3.02162278      -0.06223285      -0.44706837       0.39942172      -1.23635721      -1.71448708      -0.21125780
C       -0.30570990       0.85963906       3.43690476       1.50113156      -0.40947061       0.46819810       0.92773649       2.68588084       1.92924881
H       -1.27172327       0.82507299       3.93311235      -0.07982522      -0.05003071       0.19022706      -0.34371484      -0.30419557      -0.20733559
F        0.72800387       0.98820415       0.90439428      -1.36550619       0.01161692       0.24262469       0.12547896       0.23038019      -0.56354187
Cl       0.18928426      -1.61238070       4.44093166      -0.25247880       0.75174035       2.30613553       0.17759931      -0.09565699       0.61591175
H        1.27211172      -0.27670335       2.70594965       0.08094196      -0.31064539       0.16462501       0.90694003      -0.19118482      -0.47633264
H       -0.35381953      -0.90517361       2.29247909       0.08902852       0.10005552      -0.04210917       0.48685650       0.23494417      -0.34418743
H       -0.28299341       1.43600832       2.47880004       0.00876318      -0.05484109       0.09123337       0.01997975      -0.23693771       0.60022841
H        0.39927440       1.35881110       4.21862976       0.09472965      -0.00986291       0.03707924      -1.06451900      -0.60874303      -1.34273364
9
Properties=species:S:1:pos:R:3:momenta:R:3:forces:R:3 R1=H R2=H R3=CH3 R4=CH3 leaving_group=Cl nucleophile=Cl rxn=sn2 config=rcc label=H_H_CH3_CH3_Cl_Cl_sn2_rcc conformation=0 reactant_id=H_H_CH3_CH3_Cl_none_-_r product_id=H_H_CH3_CH3_none_Cl_sn2_pc mp2_author_energy=-29302.391748605172 mp2_my_energy=0 hash=59123 address=T id=71 energy=-17370.247654058858 pbc="F F F"
C        0.17748328      -0.50273653       4.06347790       0.14229713      -0.01564483       1.01157514       0.33348147       1.11735704       0.52141373
C        1.24315909       0.57771369       4.10777209       0.75958110       0.39332726       0.13585644      -0.55260915      -0.74791418      -1.71133372
H        1.07686058       1.30795693       4.85697959       0.08266713      -0.03523510      -0.25822102      -0.01404005       0.54288405       1.12556036
F       -0.49820128       0.45894512       1.81422514      -0.98353815      -0.17296935       0.56083840       0.14933737       0.03757917       0.12409987
Cl       0.24514966      -1.43018476       5.70807542      -0.09025793      -0.28324289       1.95318493       0.05538978      -0.20139395       0.79368352
H        0.37306848      -1.27048678       3.37145417      -0.04570451       0.09157492      -0.06775198       0.09499731      -0.47519169      -1.01829670
H       -0.80215833      -0.07632930       3.93214517      -0.11312447      -0.00730795      -0.07054385      -0.10934986      -0.14744476      -0.02438836
H        1.02082007       1.04694733       3.14564379       0.10749405      -0.08985025      -0.19418045       0.00654559       0.04350500      -0.22727252
H        2.26770068       0.21502181       4.06197634       0.15215632      -0.21342137      -0.00357021       0.03624754      -0.16938068       0.41653381
9
Properties=species:S:1:pos:R:3:momenta:R:3:forces:R:3 R1=H R2=H R3=CH3 R4=CH3 leaving_group=Cl nucleophile=Cl rxn=sn2 config=rcc label=H_H_CH3_CH3_Cl_Cl_sn2_rcc conformation=0 reactant_id=H_H_CH3_CH3_Cl_none_-_r product_id=H_H_CH3_CH3_none_Cl_sn2_pc mp2_author_energy=-29302.391748605172 mp2_my_energy=0 hash=59123 address=T id=71 energy=-17370.10986713781 pbc="F F F"
C       -0.01374340      -0.43470214       5.09227167       0.18756088      -0.34233372       0.34887272      -0.63746248       0.33576399      -0.91917763
C        1.10821901      -0.78790514       4.20371940      -0.93391307      -0.57230026       0.13563141       2.54823731       1.09029329      -0.17822170
H        2.03259726      -0.09474580       4.37743017      -0.10730921      -0.20989684       0.00346142      -1.61843299      -1.15779687      -0.23992005
F       -0.97079547       0.38818639       2.92448335       0.25778470      -0.06772101       1.19330991       0.20666134      -0.26990100       0.94553944
Cl       0.64184903      -1.07146400       6.83026699       1.07311092       0.79359122       1.13419277      -0.09478580      -0.03605416       0.61703903
H       -0.90594491      -0.99382372       4.87635184       0.03614939       0.10670141       0.02216553      -0.24185360      -0.07125495       0.11143632
H       -0.22530037       0.61443046       5.22777797      -0.30162213       0.12695298       0.08775111       0.05849641       0.01700099      -0.10072605
H        0.70918806      -0.60339549       3.20999556      -0.10211580      -0.06788472       0.10548019      -0.05050557       0.08479544      -0.23957209
H        1.45658476      -1.81535262       4.34377796      -0.09697542      -0.13150254       0.32780452      -0.17035461       0.00715327       0.00360273
9
Properties=species:S:1:pos:R:3:momenta:R:3:forces:R:3 R1=H R2=H R3=CH3 R4=CH3 leaving_group=Cl nucleophile=Cl rxn=sn2 config=rcc label=H_H_CH3_CH3_Cl_Cl_sn2_rcc conformation=0 reactant_id=H_H_CH3_CH3_Cl_none_-_r product_id=H_H_CH3_CH3_none_Cl_sn2_pc mp2_author_energy=-29302.391748605172 mp2_my_energy=0 hash=59123 address=T id=71 energy=-17369.968184486974 pbc="F F F"
C        0.10313686      -0.56299878       6.03771034      -0.50790929       0.08020785       0.37386051      -1.62492906       0.12826905       1.55452044
C       -0.27246539      -1.94166762       5.68638857      -0.78437859      -0.59266139       0.99365834       0.41438163      -0.16226968      -1.40174539
H        0.57783750      -2.48580317       5.28358660       0.21538538      -0.25707065      -0.12561750       0.21258213       0.00077085      -0.22713838
F       -1.16099232       0.20337220       4.11736243      -0.16452070      -0.18965377       0.57046045      -0.22516040      -0.00137931      -0.36005537
Cl       1.30117720      -0.69992913       7.72059259       1.50476090       0.28453719       1.46499091       0.00760105      -0.20075889      -0.08216501
H       -0.74551629       0.05840303       6.34850595       0.02074102       0.03985450      -0.24514607       0.70721568      -0.24426829      -0.04119695
H        0.66811568      -0.12429483       5.29546973       0.02477357       0.01763816       0.01106939       1.13100015       1.15296364      -1.09224233
H       -1.01043409      -1.76540755       4.88372920      -0.14663937       0.15639571       0.14991870       0.24299231      -0.05760576       0.31530627
H       -0.63106874      -2.53558745       6.47321473      -0.15003916       0.11063784       0.03386400      -0.86568348      -0.61572161       1.33471673
9
Properties=species:S:1:pos:R:3:momenta:R:3:forces:R:3 R1=H R2=H R3=CH3 R4=CH3 leaving_group=Cl nucleophile=Cl rxn=sn2 config=rcc label=H_H_CH3_CH3_Cl_Cl_sn2_rcc conformation=0 reactant_id=H_H_CH3_CH3_Cl_none_-_r product_id=H_H_CH3_CH3_none_Cl_sn2_pc mp2_author_energy=-29302.391748605172 mp2_my_energy=0 hash=59123 address=T id=71 energy=-17370.14817982109 pbc="F F F"
C       -0.29980294      -0.76161894       6.79876974       0.31323476       0.91580529       0.27658750       0.52197455      -1.44427748      -0.46098464
C       -1.32984729      -1.19379531       7.76813935      -0.40712085       0.40027378       0.77850983       0.19559010       1.32978033      -0.67370367
H       -1.61778119      -2.21194890       7.62051442      -0.13072198       0.14668505       0.17629436      -0.35940279      -0.53377768      -0.04761827
F       -1.42695325      -0.51209299       4.75227258      -0.37559521      -1.53485941       1.31176031      -0.37217609      -0.02787778      -0.19027604
Cl       2.06632660      -0.82871211       8.50718008       0.94489710      -0.65192401       1.26208512      -1.18056044      -0.00971715      -0.66943245
H        0.18109550       0.13538618       6.98864689      -0.00189432       0.05895351      -0.08910123       0.74960277       1.45648154       0.49946659
H       -0.79683863      -0.70940651       5.74975339      -0.01895849       0.38263036       0.06891566       0.47107953      -0.17844931       0.59100713
H       -2.12438488      -0.47097125       7.56346738      -0.28198746      -0.00276728       0.12597296      -0.35680417      -0.35126857       0.03050202
H       -0.97003885      -1.01157056       8.75322583      -0.02832906      -0.10375778      -0.32591694       0.33069655      -0.24089390       0.92103932
9
Properties=species:S:1:pos:R:3:momenta:R:3:forces:R:3 R1=H R2=H R3=CH3 R4=CH3 leaving_group=Cl nucleophile=Cl rxn=sn2 config=rcc label=H_H_CH3_CH3_Cl_Cl_sn2_rcc conformation=0 reactant_id=H_H_CH3_CH3_Cl_none_-_r product_id=H_H_CH3_CH3_none_Cl_sn2_pc mp2_author_energy=-29302.391748605172 mp2_my_energy=0 hash=59123 address=T id=71 energy=-17370.393072582643 pbc="F F F"
C       -0.20539647      -0.90938597       7.56156324      -0.82142366       1.00297135       0.34593102       1.28391288       2.08263730       1.38967938
C       -1.02289580      -0.05657825       8.54585887       0.11504927       0.48072929       0.35404076      -1.20066356      -0.02043835      -1.02892380
H       -1.86406289      -0.60566993       9.01953693       0.04165507       0.05436756       0.19406265       0.61755954      -0.13315186      -0.18585066
F       -1.97409689      -1.32649638       6.15388461      -0.35371779      -0.96885570       1.03492819       0.05054354      -0.07021227      -0.31551146
Cl       2.19769578      -1.03662053       9.13165531       1.02534780      -0.84003922       1.38271687      -0.55873898       0.12548531      -0.28680503
H        0.59049667      -0.30868068       7.08102752      -0.09131383       0.08372123       0.04061927      -0.57021688      -0.60126982       0.58340907
H       -0.89166946      -1.25536385       6.79240545       0.05778780      -0.14491519      -0.07310088      -1.32800895      -0.73637911      -1.00100119
H       -1.54976843       0.79351684       8.00750124      -0.00225104      -0.21211859      -0.02107823       0.96242644      -0.95995308       0.14759765
H       -0.43795323       0.35315738       9.32978330       0.03987103       0.22764822      -0.34097395       0.74318597       0.31328189       0.69740604
9
Properties=species:S:1:pos:R:3:momenta:R:3:forces:R:3 R1=H R2=H R3=CH3 R4=CH3 leaving_group=Cl nucleophile=Cl rxn=sn2 config=rcc label=H_H_CH3_CH3_Cl_Cl_sn2_rcc conformation=0 reactant_id=H_H_CH3_CH3_Cl_none_-_r product_id=H_H_CH3_CH3_none_Cl_sn2_pc mp2_author_energy=-29302.391748605172 mp2_my_energy=0 hash=59123 address=T id=71 energy=-17370.51095127471 pbc="F F F"
C       -0.38539658      -1.09834705       8.55474468       0.57688989       0.08847228      -0.19381185       0.09359402       0.57898376       0.78071850
C       -0.68027901       0.38799134       8.53490743      -0.67041837       0.85218740      -0.21263255      -1.59617448      -1.28555466       1.26429317
H       -1.23741101       0.65784816       9.47887143       0.04972857       0.03804524      -0.09130542       0.11720968      -0.09294124      -1.12371962
F       -2.35268321      -1.68986796       7.68761424      -0.54066239      -0.58402734       1.50099681      -1.03942429      -0.53481715      -0.37106548
Cl       2.32422455      -1.12984318       9.73884001       0.50121788      -0.66302165       1.19434200      -0.46893583       0.18616387      -0.18518285
H        0.43064265      -1.30284251       7.92631123       0.08324733      -0.10760095       0.01799359       0.67465505      -0.54704907      -0.62299111
H       -1.33422413      -1.69285086       8.31592882      -0.11862152      -0.13300192       0.22917245       0.37829200       0.58023829      -0.10625266
H       -1.24341603       0.58748698       7.60724821       0.03158920       0.01846382      -0.11754214       0.08256832      -0.04611913       0.47002997
H        0.21945716       0.90391955       8.58003574       0.09648864       0.21843765       0.18027121       1.75821554       1.16109533      -0.10582992
9
Properties=species:S:1:pos:R:3:momenta:R:3:forces:R:3 R1=H R2=H R3=CH3 R4=CH3 leaving_group=Cl nucleophile=Cl rxn=sn2 config=rcc label=H_H_CH3_CH3_Cl_Cl_sn2_rcc conformation=0 reactant_id=H_H_CH3_CH3_Cl_none_-_r product_id=H_H_CH3_CH3_none_Cl_sn2_pc mp2_author_energy=-29302.391748605172 mp2_my_energy=0 hash=59123 address=T id=71 energy=-17370.756620725326 pbc="F F F"
C       -0.50344738      -1.12162558       9.48416966      -0.29184257       1.24941945      -0.35344018      -1.40877278      -1.61275756      -0.71649837
C       -0.37345660      -0.05479487       8.46491122      -0.47140470       0.02113733       0.16029019       0.08186003       0.02553423       0.01358696
H       -0.90399221       0.84860102       8.73921604      -0.09354559      -0.04740571      -0.30867505      -0.13153958       0.28096897       0.00708845
F       -2.65604491      -1.68628762       9.08866149       0.01963908      -0.23305582       1.78922613       2.28008128       0.53853273       0.54577405
Cl       2.40846002      -1.08726305      10.24121655       0.52486854      -0.60127653       1.54987572      -0.24321769       0.06046107      -0.07097136
H        0.13737214      -1.97128454       9.23792948       0.16561749      -0.19550313      -0.20357069      -0.15101918       0.36742920       0.29933651
H       -1.55706265      -1.49506659       9.52634136       0.07471537      -0.24564463      -0.13094019      -0.53959819       0.25213633      -0.03460752
H       -0.78275334      -0.45979101       7.54709357      -0.15769447      -0.14308656       0.10963810      -0.39377923      -0.19302442      -0.20381880
H        0.65754593       0.17421726       8.26414092       0.23887483      -0.06997878      -0.16622396       0.50598533       0.28071945       0.16011010
9
Properties=species:S:1:pos:R:3:momenta:R:3:forces:R:3 R1=H R2=H R3=CH3 R4=CH3 leaving_group=Cl nucleophile=Cl rxn=sn2 config=rcc label=H_H_CH3_CH3_Cl_Cl_sn2_rcc conformation=0 reactant_id=H_H_CH3_CH3_Cl_none_-_r product_id=H_H_CH3_CH3_none_Cl_sn2_pc mp2_author_energy=-29302.391748605172 mp2_my_energy=0 hash=59123 address=T id=71 energy=-17370.65996606306 pbc="F F F"
C       -0.55317944      -1.00005956      10.57012895      -0.06520324       0.82366725       0.41894514       2.81987670      -1.11225019       0.35405954
C       -0.39460254      -1.12587000       9.10756695      -0.43824767      -1.25505208      -0.55142090       1.03405835       0.61807352      -0.71105636
H       -0.94742445      -0.40979781       8.48792127       0.05037096       0.04960385       0.16127778       0.19486653       0.30041209       0.28696113
F       -2.69623132      -1.36318865      10.55150427       0.23891232       0.05084388       1.55091619      -1.21768547      -0.16122491       0.16826613
Cl       2.47231325      -1.04968776      10.70866521       0.28865840      -0.00598166       1.27624470      -0.41065802       0.07043790       0.07077274
H       -0.05607732      -1.88197793      11.04103152       0.14746916      -0.08372785       0.10841187      -0.34639509       1.07569762      -0.17701200
H       -1.62812996      -1.04292524      10.78295411      -0.19699810       0.12181919      -0.09190286      -0.99828184       0.14513933       0.15315258
H       -0.88324020      -2.06287201       8.92783649      -0.16702954       0.00883122      -0.16679186      -0.01400971      -0.75715342      -0.23096477
H        0.68394150      -1.12678508       8.81615734       0.15169577       0.01309547      -0.15344423      -1.06177145      -0.17913194       0.08582102
9
Properties=species:S:1:pos:R:3:momenta:R:3:forces:R:3 R1=H R2=H R3=CH3 R4=CH3 leaving_group=Cl nucleophile=Cl rxn=sn2 config=rcc label=H_H_CH3_CH3_Cl_Cl_sn2_rcc conformation=0 reactant_id=H_H_CH3_CH3_Cl_none_-_r product_id=H_H_CH3_CH3_none_Cl_sn2_pc mp2_author_energy=-29302.391748605172 mp2_my_energy=0 hash=59123 address=T id=71 energy=-17370.676565980444 pbc="F F F"
C       -0.51143808      -0.93600622      11.28901459       0.51487991      -0.16456768      -0.65808289       0.82705951      -0.60087076      -1.69576639
C       -0.56384265      -1.94634775      10.13425188      -0.40232748      -0.16400712       1.03018784       1.71148831       0.27982165       0.77144880
H       -1.12170868      -1.53517820       9.31082479      -0.00383786      -0.09759865      -0.07026852      -0.19458935       0.05607317      -0.51436929
F       -2.66927592      -1.10588104      11.51888935      -0.35813961       0.14816090       0.67333400      -1.32611831       0.09104004       0.34208641
Cl       2.51914363      -1.04593027      11.05630105       0.63008571       0.04900231       0.55077212      -0.42630823       0.08094639       0.06501781
H        0.08738096      -1.33253761      12.06272620      -0.05783396      -0.00039485       0.05493202       0.20464096      -0.01092592       0.80532222
H       -1.60667995      -0.72535156      11.53659797      -0.34464582      -0.00707818       0.21763569       0.51057620      -0.13631974       0.14485366
H       -1.08823385      -2.79533445      10.57841415       0.02172392       0.01347474       0.19142308      -0.03540546      -0.01469900      -0.16216830
H        0.47569268      -2.23470618       9.81255937       0.00747091       0.01088459      -0.03475494      -1.27134364       0.25493417       0.24357509
9
Properties=species:S:1:pos:R:3:momenta:R:3:forces:R:3 R1=H R2=H R3=CH3 R4=CH3 leaving_group=Cl nucleophile=Cl rxn=sn2 config=rcc label=H_H_CH3_CH3_Cl_Cl_sn2_rcc conformation=0 reactant_id=H_H_CH3_CH3_Cl_none_-_r product_id=H_H_CH3_CH3_none_Cl_sn2_pc mp2_author_energy=-29302.391748605172 mp2_my_energy=0 hash=59123 address=T id=71 energy=-17370.609352833828 pbc="F F F"
C       -0.46123828      -0.91849051      11.92115008       1.04512943       0.67603859      -0.35487809      -1.73271388      -0.57063540      -0.67544996
C       -0.43329753      -2.40374789      11.77851581      -0.73824780       0.53917860       1.72488848       2.50661769      -1.00565265      -0.75253688
H       -0.90380222      -2.82714146      10.85359483      -0.16575091      -0.07492335       0.20747881       0.44321056       0.60302420       0.60842573
F       -2.59152734      -0.94905120      12.47184333      -0.54021924      -1.09197837       0.75453631      -0.42272365       0.20466220       0.07340047
Cl       2.40737026      -1.14661910      11.36879433       0.84486190      -0.52922824       0.07593180       0.39590200       0.28587801      -0.08183093
H        0.09082665      -0.62055777      12.76029010      -0.27046214       0.11957803       0.26311485       0.80346244       0.46218512       0.81674671
H       -1.57041181      -0.63070148      12.06691701      -0.01824258       0.11211001       0.22105104       0.83884685      -0.21265921      -0.23338121
H       -0.98603744      -2.77538057      12.61321109      -0.05525695      -0.05940319       0.13556587      -0.53830088      -0.14779077       0.64705407
H        0.66519021      -2.77212959      11.88032135      -0.08935566      -0.04960484       0.27419635      -2.29430112       0.38098850      -0.40242801
9
Properties=species:S:1:pos:R:3:momenta:R:3:forces:R:3 R1=H R2=H R3=CH3 R4=CH3 leaving_group=Cl nucleophile=Cl rxn=sn2 config=rcc label=H_H_CH3_CH3_Cl_Cl_sn2_rcc conformation=0 reactant_id=H_H_CH3_CH3_Cl_none_-_r product_id=H_H_CH3_CH3_none_Cl_sn2_pc mp2_author_energy=-29302.391748605172 mp2_my_energy=0 hash=59123 address=T id=71 energy=-17370.445512651015 pbc="F F F"
C       -0.44071502      -1.08615818      12.94093262      -0.34277102       0.16987888       0.45529191      -0.45739986      -1.02841602       0.57239403
C        0.13467605      -2.05252648      13.94242302      -0.03711059       0.78866583       0.53177814       0.82517585       0.35916066       0.10455742
H       -0.06183005      -3.05150438      13.58394261       0.04939698       0.17284302      -0.05186941      -0.17007481      -0.56181324      -0.08464986
F       -2.61332311      -1.01370184      13.40023793       0.37679422      -0.70287343       1.35100870       0.65888210       0.06733620       0.13681494
Cl       2.16752112      -1.45744611      11.77381270      -0.20591239      -1.04414908       0.98181715       0.80037787       0.14254934      -0.79889099
H        0.06327806      -0.22630254      12.66622611       0.10471777      -0.02495900      -0.21480459       0.85284718       1.11347678      -0.15583647
H       -1.50824683      -0.87425115      13.06688069       0.02980141       0.05867938       0.05079783      -0.92953721      -0.39498592       0.07117167
H       -0.35097574      -1.96731000      14.93918430      -0.17343271       0.10215872       0.05514387       0.48427250       0.30311844      -0.54484515
H        1.28027219      -1.97331847      13.93615740       0.21026172       0.14196127      -0.04566155      -2.06454362      -0.00042623       0.69928442
9
Properties=species:S:1:pos:R:3:momenta:R:3:forces:R:3 R1=H R2=H R3=CH3 R4=CH3 leaving_group=Cl nucleophile=Cl rxn=sn2 config=rcc label=H_H_CH3_CH3_Cl_Cl_sn2_rcc conformation=0 reactant_id=H_H_CH3_CH3_Cl_none_-_r product_id=H_H_CH3_CH3_none_Cl_sn2_pc mp2_author_energy=-29302.391748605172 mp2_my_energy=0 hash=59123 address=T id=71 energy=-17370.75498127461 pbc="F F F"
C       -0.43136683      -1.22049657      13.57877843       0.53790105       0.31698298       0.00179674       0.75354139       0.55830174       0.10691131
C        0.35207056      -1.11666171      14.84971562      -0.00341260       0.56653102      -0.37209990       0.68112376      -0.67109470      -0.28867598
H        0.19550342      -2.03650515      15.41504086       0.04476384      -0.11933392      -0.13337747       0.14656613       0.07571112       0.40142196
F       -2.49575994      -1.35802664      14.30419598      -0.33569547      -0.41999565       0.91820865      -0.45872724      -0.02569375       0.26060815
Cl       2.02267928      -1.79289346      12.15466376      -0.66225461      -0.51507611       1.16033280       0.34374397      -0.01654503      -0.26734408
H       -0.37420095      -0.29221487      13.03616872       0.13849818       0.04549747       0.06451866       0.02544158       0.03289847      -0.46056600
H       -1.48485705      -1.49013370      13.78927913      -0.11997734      -0.10459548      -0.00733606      -0.39163094       0.02316918       0.14371936
H        0.01738229      -0.24102198      15.40654740      -0.04169445      -0.06327250      -0.01804803      -0.25629949       0.00846884      -0.00368561
H        1.44467854      -1.03977676      14.63820291       0.44830521       0.10822777       0.09149470      -0.84375917       0.01478413       0.10761090
9
Properties=species:S:1:pos:R:3:momenta:R:3:forces:R:3 R1=H R2=H R3=CH3 R4=CH3 leaving_group=Cl nucleophile=Cl rxn=sn2 config=rcc label=H_H_CH3_CH3_Cl_Cl_sn2_rcc conformation=0 reactant_id=H_H_CH3_CH3_Cl_none_-_r product_id=H_H_CH3_CH3_none_Cl_sn2_pc mp2_author_energy=-29302.391748605172 mp2_my_energy=0 hash=59123 address=T id=71 energy=-17370.762240243137 pbc="F F F"
C       -0.40596154      -1.41111414      14.34202311       0.94815966       0.81815471      -0.06544517      -0.70766400      -0.09506820       0.18737724
C        0.27367172      -0.27240776      15.04907635      -0.36056760      -0.21249100      -0.34045497      -1.32154177      -0.73017477       0.93046815
H        0.62662310      -0.53609825      16.05636905      -0.20125053      -0.09440152      -0.19813280      -0.19587478      -0.16626304      -0.21664341
F       -2.27610314      -1.55376069      15.54048166       0.16718100      -0.53909856       1.16248707       0.51620694       0.06498159      -0.49894172
Cl       1.93898864      -2.13772318      12.67095510      -0.72141510      -0.34147700       1.48952923       0.01954206       0.08499337       0.02317985
H       -0.49406912      -1.32680488      13.26113349      -0.17721917       0.06196500      -0.13487577       0.02552807       0.14786950       0.52747312
H       -1.37298287      -1.71109962      14.83373216       0.03461453       0.04459240       0.12666687       0.18742439       0.16201129       0.26082885