9
Properties=species:S:1:pos:R:3:momenta:R:3:forces:R:3 R1=H R2=H R3=CH3 R4=CH3 leaving_group=Cl nucleophile=Cl rxn=sn2 config=rcc label=H_H_CH3_CH3_Cl_Cl_sn2_rcc conformation=0 reactant_id=H_H_CH3_CH3_Cl_none_-_r product_id=H_H_CH3_CH3_none_Cl_sn2_pc mp2_author_energy=-29302.391748605172 mp2_my_energy=0 hash=59123 address=T id=71 energy=-17370.412368016237 pbc="F F F"
C        0.12542541       0.11270554      -0.00029240      -0.29879062      -0.37313633      -0.32340834      -0.09214561       1.11788396      -0.00082481
C        1.62503867       0.00847468       0.00156754       0.84445834      -0.26514947       0.74421837      -0.06338950      -0.85342640       0.00215309
H        1.99473018      -0.50605055       0.89354482      -0.17891739      -0.18506864       0.07280884       0.00320508       0.00300841       0.00517082
F        0.89788639       2.64149152      -0.00442372      -0.61052878       0.23069999       0.41259305      -0.23271315      -0.10403772      -0.00076135
Cl      -0.69504884      -1.53494042       0.00509220       0.32530540       2.48920050      -0.14470935       0.38207948      -0.16174994      -0.00050876
H       -0.22306082       0.64592326      -0.87549887       0.10994865       0.00759644       0.03228337      -0.00302890      -0.00293595      -0.00472561
H       -0.22431889       0.65275656       0.87018381      -0.11428558       0.22900604      -0.06831760      -0.00396382      -0.00350204       0.00469305
H        1.88822962       1.08069343      -0.00059746       0.06373824       0.05061253       0.19467591       0.00778691       0.00253743      -0.00033365
H        1.99700981      -0.51031959      -0.88698835      -0.23210419      -0.12264528      -0.07702390       0.00216950       0.00222225      -0.00486279
9
Properties=species:S:1:pos:R:3:momenta:R:3:forces:R:3 R1=H R2=H R3=CH3 R4=CH3 leaving_group=Cl nucleophile=Cl rxn=sn2 config=rcc label=H_H_CH3_CH3_Cl_Cl_sn2_rcc conformation=0 reactant_id=H_H_CH3_CH3_Cl_none_-_r product_id=H_H_CH3_CH3_none_Cl_sn2_pc mp2_author_energy=-29302.391748605172 mp2_my_energy=0 hash=59123 address=T id=71 energy=-17370.178625293 pbc="F F F"
C        0.39486476       0.87744026       0.21007601      -0.07960168       0.33744968      -0.01732454       0.63056356      -0.76585395      -0.70972733
C        0.89030648       0.51979286       1.62613364       0.00052999       1.50402347       0.77591767      -0.45343979       0.27905118      -1.62567629
H        0.02408724       0.18715012       2.21985615      -0.08937645       0.10957051       0.01040133       0.35202826       0.47696455       0.07784835
F        1.23680157       3.36497215       0.57255863       0.53742650       0.00385202       0.94551429      -0.04701469      -0.96394826       0.10283112
Cl      -0.76207169      -0.55842324      -0.30787023      -0.24201173       0.79725192      -0.87827383       0.58018347       0.58893667       0.25772251
H        1.16098459       0.89271371      -0.60128676      -0.03666556      -0.18968774       0.05057100      -0.50638488      -0.04683105       1.20793319
H       -0.08849720       1.82842904       0.14512520      -0.15091572       0.00647800       0.01024613      -0.53971903       0.32467670       0.26816172
H        1.34263451       1.49004658       1.89224261       0.02233300      -0.00236609       0.16111374       0.01243837      -0.34666657       0.31270303
H        1.59217781      -0.32643317       1.56598941      -0.07701972       0.03992159       0.00804680      -0.02865528       0.45367073       0.10820370
9
Properties=species:S:1:pos:R:3:momenta:R:3:forces:R:3 R1=H R2=H R3=CH3 R4=CH3 leaving_group=Cl nucleophile=Cl rxn=sn2 config=rcc label=H_H_CH3_CH3_Cl_Cl_sn2_rcc conformation=0 reactant_id=H_H_CH3_CH3_Cl_none_-_r product_id=H_H_CH3_CH3_none_Cl_sn2_pc mp2_author_energy=-29302.391748605172 mp2_my_energy=0 hash=59123 address=T id=71 energy=-17370.377377434426 pbc="F F F"
C        0.30801948       1.80505329       0.55369815      -0.00367463       1.02408530      -0.14024993      -0.30991130      -1.00067552       0.36476561
C       -0.55706668       1.98911636       1.78290749      -0.55331049       0.55595747      -0.23054832       0.05814797       0.15160020      -0.66996124
H       -1.54466269       2.31270478       1.44371704       0.07424867       0.41456331       0.14922266      -0.13253676      -0.21618974       0.24506421
F        1.87535438       3.54007292       1.73572152       0.42704099      -0.25295706       0.60470150       0.32107529       0.47589987       0.27283802
Cl      -0.54302995       0.40811238      -0.30633555       0.33067300      -0.00080098       0.01804094       0.18333894      -0.09995798      -0.35356955
H        1.34554038       1.56238014       0.78556736       0.03463833       0.09724726       0.02995609      -0.39202643      -0.02116219      -0.05376809
H        0.29254608       2.63822885      -0.11530132      -0.11165354       0.09849386       0.23212084       0.02799079       0.45888030      -0.20788763
H       -0.09668966       2.78455844       2.35679962      -0.27829206      -0.06069469       0.22255958       0.39716898       0.05863813       0.15835741
H       -0.61275377       1.03494460       2.31073044      -0.00428196       0.03683069      -0.10338372      -0.15324746       0.19296695       0.24416126
9
Properties=species:S:1:pos:R:3:momenta:R:3:forces:R:3 R1=H R2=H R3=CH3 R4=CH3 leaving_group=Cl nucleophile=Cl rxn=sn2 config=rcc label=H_H_CH3_CH3_Cl_Cl_sn2_rcc conformation=0 reactant_id=H_H_CH3_CH3_Cl_none_-_r product_id=H_H_CH3_CH3_none_Cl_sn2_pc mp2_author_energy=-29302.391748605172 mp2_my_energy=0 hash=59123 address=T id=71 energy=-17370.26976912849 pbc="F F F"
C        0.37169258       2.31155700       0.90465786       0.51028333       0.05981656       0.13798781      -0.23498837      -0.11319083       0.41368571
C       -0.67133485       3.23584962       1.40112648       0.91372459      -0.48186155      -0.94072791      -1.80002924       0.81231390      -0.95122018
H       -0.97324642       3.89159799       0.56795530      -0.07477548       0.01704709      -0.10162242      -0.17012804      -0.06856285       0.30846683
F        1.75481454       3.56648784       2.73276067      -0.87293057      -0.17026551       0.44029348       0.18889781       0.05643928       0.02123684
Cl      -0.51501806       1.10658968      -0.23492040       0.05943337       2.90783594       1.24439674      -0.16188556      -0.15498807      -0.34198072
H        0.73113201       1.76268039       1.73895660      -0.10575315      -0.11160200       0.14456620       0.89630118      -0.47685979       0.18849246
H        1.11554048       2.78909189       0.28825275      -0.16395287      -0.14621889      -0.03092075       0.31971581      -0.04795408       0.30288082
H       -0.26373860       3.84083569       2.19630269      -0.30006491       0.14757714      -0.05821657       0.65142928       0.01148987       0.20015093
H       -1.57539730       2.71698218       1.76124529      -0.07165651       0.16694077       0.14159841       0.31068714      -0.01868743      -0.14171269
9
Properties=species:S:1:pos:R:3:momenta:R:3:forces:R:3 R1=H R2=H R3=CH3 R4=CH3 leaving_group=Cl nucleophile=Cl rxn=sn2 config=rcc label=H_H_CH3_CH3_Cl_Cl_sn2_rcc conformation=0 reactant_id=H_H_CH3_CH3_Cl_none_-_r product_id=H_H_CH3_CH3_none_Cl_sn2_pc mp2_author_energy=-29302.391748605172 mp2_my_energy=0 hash=59123 address=T id=71 energy=-17370.046157502024 pbc="F F F"
C        0.24362919       2.84991163       1.36793018      -0.74056003       0.10232889      -0.24780043       0.65136850       1.39012616      -1.60249630
C        0.07010923       4.35820253       1.21717749       0.13879996       0.14530834      -0.16661982      -0.33733180       0.43268078      -0.55724267
H        0.39363770       4.84973687       0.29584623       0.16826240      -0.03107178       0.02562385       0.18651054      -0.66253223      -0.31815640
F        1.16628023       3.71012001       3.60491269      -0.19382805       0.07675856       0.49699827       0.56322652       0.20975188       1.20532460
Cl      -0.53737065       1.92369322      -0.16916203       0.47165725       1.38650421       0.37466305       0.01869614       0.39645215      -0.01812610
H       -0.30307070       2.52282632       2.21225103      -0.08126358       0.04944806       0.13752372       0.02308259      -0.59652725       0.72867731
H        1.32068469       2.63832852       1.32816211       0.00152611       0.04438977       0.20118862      -0.72174049      -0.43648305       0.31956167
H        0.66984914       4.76005297       2.03994917       0.09906125       0.02284688      -0.12116176       0.03440300      -0.41707204       0.19305507
H       -0.94171914       4.71385069       1.38859056       0.05618014       0.01568039       0.04088058      -0.41821499      -0.31639640       0.04940284
9
Properties=species:S:1:pos:R:3:momenta:R:3:forces:R:3 R1=H R2=H R3=CH3 R4=CH3 leaving_group=Cl nucleophile=Cl rxn=sn2 config=rcc label=H_H_CH3_CH3_Cl_Cl_sn2_rcc conformation=0 reactant_id=H_H_CH3_CH3_Cl_none_-_r product_id=H_H_CH3_CH3_none_Cl_sn2_pc mp2_author_energy=-29302.391748605172 mp2_my_energy=0 hash=59123 address=T id=71 energy=-17369.899027498264 pbc="F F F"
C        0.03484883       3.57652980       1.88039105      -0.22738774       1.79096663       0.31146250       0.88162022      -0.09744019      -0.09729990
C        1.10022930       4.53396067       1.50073380       0.96943129       0.07753314       0.99570236       0.25298849      -0.56626218      -0.38375388
H        1.71024715       4.06369415       0.73073954      -0.04793725      -0.00353054      -0.03342613       0.21041409       0.36450616      -0.06368740
F        0.35500579       4.26247633       4.34874808      -0.22608399       0.31031480       0.00015046       0.03610952      -0.13728180      -0.56894880
Cl      -0.52976880       3.08517220      -0.14227044      -0.21074078       0.96744384      -0.64028221      -0.40956711      -0.25521660      -0.21270440
H       -0.80438166       4.05860474       2.29794260      -0.10527881      -0.02764091       0.06561629      -0.86276411      -0.26405286       0.60916839
H        0.37742424       2.60543970       2.21386925      -0.20241766      -0.20602526       0.04824789      -0.46185649       0.16143649       0.27891482
H        1.68988085       4.71403749       2.37919406      -0.14933382      -0.03767409       0.36654222       0.04265520       0.35671607       0.54658152
H        0.59895047       5.41235343       1.11893918       0.07639648      -0.08289601       0.02664745       0.31040020       0.43759491      -0.10827035
9
Properties=species:S:1:pos:R:3:momenta:R:3:forces:R:3 R1=H R2=H R3=CH3 R4=CH3 leaving_group=Cl nucleophile=Cl rxn=sn2 config=rcc label=H_H_CH3_CH3_Cl_Cl_sn2_rcc conformation=0 reactant_id=H_H_CH3_CH3_Cl_none_-_r product_id=H_H_CH3_CH3_none_Cl_sn2_pc mp2_author_energy=-29302.391748605172 mp2_my_energy=0 hash=59123 address=T id=71 energy=-17369.84910898807 pbc="F F F"
C       -0.20383184       4.88400306       2.34356371      -0.10440549       0.59548247      -0.01419711      -0.56655516      -0.87687080       2.48850378
C        0.98338595       3.99925323       2.52418211      -1.06408191      -0.61031123       0.15732878       0.58707140      -1.44111401       0.12322151
H        1.26515764       3.55450925       1.53751940      -0.03560695       0.32670985       0.14788864      -0.03956519       0.05720399       1.26110888
F       -0.06779719       5.21881164       4.88027952      -0.19653065       0.67973368       0.29531283      -0.12894628       0.01699582      -0.00692326
Cl      -0.26128478       4.43212996      -0.17512501       1.06386063       2.35250274       0.63120182      -0.19103762       0.03283262      -0.87943748
H        0.06599502       5.88337450       2.14067318       0.12301330      -0.04960352      -0.14985835      -0.16717226       0.93733271      -0.32884285
H       -0.88159244       4.74380747       3.23322131       0.29360417       0.14856941       0.32114776       0.61070362       0.61943938      -1.09550800
H        0.68446208       3.20975237       3.30415282      -0.19281893       0.27669506      -0.03717005       0.66584241       0.94772409      -1.34704925
H        1.85154258       4.57729198       2.92157617      -0.04595821      -0.12715471       0.11794492      -0.77034093      -0.29354379      -0.21507334
9
Properties=species:S:1:pos:R:3:momenta:R:3:forces:R:3 R1=H R2=H R3=CH3 R4=CH3 leaving_group=Cl nucleophile=Cl rxn=sn2 config=rcc label=H_H_CH3_CH3_Cl_Cl_sn2_rcc conformation=0 reactant_id=H_H_CH3_CH3_Cl_none_-_r product_id=H_H_CH3_CH3_none_Cl_sn2_pc mp2_author_energy=-29302.391748605172 mp2_my_energy=0 hash=59123 address=T id=71 energy=-17370.099689278057 pbc="F F F"
C        0.00303477       5.57605245       2.99967831      -0.54246234      -0.06451061       0.30917184      -0.89900728      -0.07337705       1.36015367
C       -0.80699912       4.31362327       2.91436916      -0.30083513       0.52940157      -1.44887932       1.27515496       0.07445285       0.93174988
H       -0.73810301       3.93824664       1.90668582      -0.02991286       0.14749002       0.08245955      -0.26349702      -0.28978584      -0.16211945
F       -0.15336693       6.13938343       5.46197520       0.35316349       1.03468129       1.37914711       0.00983608      -0.39038975      -0.77878628
Cl       0.36613763       5.78464803       0.00432467       0.74672917       1.15289073       0.63251543      -0.13665283      -0.12416179       0.97121839
H        0.91381637       5.46973865       2.51741161      -0.18089842       0.01886237       0.12138204       1.52363568       0.23918331      -0.49954752
H       -0.00603187       5.91965216       4.15584471       0.12329023      -0.11992505       0.10647019       0.06363570      -0.07936720      -1.12641565
H       -1.76924577       4.59098267       3.21638452      -0.13641453       0.04480303      -0.06893969      -1.83514957       0.10969463      -0.00741468
H       -0.46873136       3.57773425       3.68413508      -0.15700667       0.06728607       0.03653254       0.26204428       0.53375083      -0.68883836
9
Properties=species:S:1:pos:R:3:momenta:R:3:forces:R:3 R1=H R2=H R3=CH3 R4=CH3 leaving_group=Cl nucleophile=Cl rxn=sn2 config=rcc label=H_H_CH3_CH3_Cl_Cl_sn2_rcc conformation=0 reactant_id=H_H_CH3_CH3_Cl_none_-_r product_id=H_H_CH3_CH3_none_Cl_sn2_pc mp2_author_energy=-29302.391748605172 mp2_my_energy=0 hash=59123 address=T id=71 energy=-17370.277656282917 pbc="F F F"
C        0.11717851       6.16280549       3.17990939      -0.45795335       0.35051547      -0.69211987      -0.11653185      -0.51200496       0.33409303
C       -1.36182828       5.94357252       2.92274046       0.18016212       0.69861603       0.53218667       0.58625205       0.36931069      -0.93901192
H       -1.47911247       5.02124551       2.33296953      -0.33621973       0.01638146       0.28667621      -0.16905190       0.22806865       0.57392743
F       -0.40155577       6.04844178       5.63305214      -0.36628811       0.02097868      -0.22184255      -0.18685621       0.08080187       0.29499049
Cl       0.64299137       6.30564671       0.41746713       0.85060416       1.32699837       1.29866846       0.08418786       0.14574714      -1.20278803
H        0.76489774       5.39667221       2.71677268      -0.01263172      -0.37147585      -0.04370168      -0.38788709       0.64519750       0.76789876
H        0.28368156       6.41850058       4.24807090       0.20916870       0.16143757      -0.22022264       0.10102149      -0.28814947      -0.45040018
H       -1.83218895       6.74602213       2.32111764      -0.01336268       0.32631958      -0.14371292       0.46442682      -0.24035322       0.35651160
H       -1.78280446       5.93498743       3.92183610      -0.16658638       0.02711627       0.24998915      -0.37556117      -0.42861820       0.26477883
9
Properties=species:S:1:pos:R:3:momenta:R:3:forces:R:3 R1=H R2=H R3=CH3 R4=CH3 leaving_group=Cl nucleophile=Cl rxn=sn2 config=rcc label=H_H_CH3_CH3_Cl_Cl_sn2_rcc conformation=0 reactant_id=H_H_CH3_CH3_Cl_none_-_r product_id=H_H_CH3_CH3_none_Cl_sn2_pc mp2_author_energy=-29302.391748605172 mp2_my_energy=0 hash=59123 address=T id=71 energy=-17370.279917541062 pbc="F F F"
C       -0.00560861       6.56266972       3.55718768      -0.25438068       0.37085056       0.46643392      -1.82077516       0.56895574      -0.98795461
C       -1.04766173       7.68982125       3.43232729       0.29598291       0.20641147       0.16277442       0.10752060      -2.60742458       0.65658952
H       -0.79982436       8.50828150       2.82639937       0.14196303       0.05139101       0.12836761       0.79256432       1.22806791      -0.52829160
F       -0.99939054       6.02305025       5.77989663      -0.60596044      -0.24010918      -0.11307636      -0.15535634       0.14626202      -0.03018769
Cl       0.82219760       6.79757189       0.52904710       0.06959147       0.55098762      -0.03272212      -0.08057070       0.06173246       0.33960459
H        0.90869912       6.98925460       3.87029579       0.08756636       0.21821987       0.12809729       0.88975636      -0.08835816       0.38747591
H       -0.48759251       5.83875181       4.24542546       0.15459778      -0.01511083      -0.00487995       0.79395450       0.35459312      -0.03824473
H       -1.21419780       7.84783712       4.49112969       0.16589465       0.35244783       0.01643180      -0.06037780       0.52779184       0.40199175
H       -1.94942352       7.25892737       3.02289222      -0.12661091       0.11797580      -0.09158632      -0.46671577      -0.19162036      -0.20098314
9
Properties=species:S:1:pos:R:3:momenta:R:3:forces:R:3 R1=H R2=H R3=CH3 R4=CH3 leaving_group=Cl nucleophile=Cl rxn=sn2 config=rcc label=H_H_CH3_CH3_Cl_Cl_sn2_rcc conformation=0 reactant_id=H_H_CH3_CH3_Cl_none_-_r product_id=H_H_CH3_CH3_none_Cl_sn2_pc mp2_author_energy=-29302.391748605172 mp2_my_energy=0 hash=59123 address=T id=71 energy=-17370.3019010267 pbc="F F F"
C       -0.65634375       7.03779344       3.60214416      -0.07833998      -0.19580099      -0.12069169       1.78271923       2.35788229      -2.85072440
C       -0.46218040       8.52476574       3.95211684       0.89176151       0.79491439       1.04046655      -0.44443874      -0.26404659      -0.63862298
H        0.13295539       8.95814605       3.16399009      -0.12532402       0.14567048       0.29298220      -0.04474870       0.14910613      -0.48239722
F       -1.42136544       6.20881903       5.71237403      -0.59497073       0.59591534      -0.88557505      -0.85873243      -0.65996702       1.81527659
Cl       0.97192956       7.32312539       0.81546169      -0.43949909       0.54315143       0.84306598       0.05621583       0.06816136      -0.19888726
H        0.30555907       6.64670315       3.18729628       0.22474427       0.12769691      -0.08841489      -1.36108395       0.08981142       0.78795153
H       -1.18207823       6.51340024       4.44594903       0.15283444      -0.19576028      -0.04172497       0.19716307      -0.30645587       0.67444109
H        0.20089224       8.52361368       4.79909671      -0.13681023       0.20465223      -0.04710835      -0.05879541      -0.00704186       0.87422438
H       -1.34860089       9.20980514       4.10311037       0.01779415      -0.03542147      -0.18100798       0.73170110      -1.42744987       0.01873826
9
Properties=species:S:1:pos:R:3:momenta:R:3:forces:R:3 R1=H R2=H R3=CH3 R4=CH3 leaving_group=Cl nucleophile=Cl rxn=sn2 config=rcc label=H_H_CH3_CH3_Cl_Cl_sn2_rcc conformation=0 reactant_id=H_H_CH3_CH3_Cl_none_-_r product_id=H_H_CH3_CH3_none_Cl_sn2_pc mp2_author_energy=-29302.391748605172 mp2_my_energy=0 hash=59123 address=T id=71 energy=-17370.323708778324 pbc="F F F"
C       -0.83332251       7.62009914       3.65348179       0.32626381       0.48445619      -0.09190879       0.16357275      -0.35711256      -0.02614257
C        0.05757181       8.42813341       4.51383485      -0.01850689       0.29769316       0.07662185       0.90880398       0.03019636       0.28055614
H        1.09805790       8.71987735       4.24017984      -0.08472947      -0.38551631       0.07840681      -0.90188814      -0.73844837      -0.53911434
F       -2.04426877       7.00370220       5.71609221      -0.24239431       0.36415117      -0.01745332       0.05941834       0.15983536      -0.24231832
Cl       1.11471474       8.10707956       1.11028629       0.24562936       0.85146345       0.28983844       0.01291572       0.03392566      -0.00804537
H       -0.38401504       6.75135402       3.16071447      -0.17301340       0.11471255       0.04830556      -0.33597175       0.49371269       0.44814877
H       -1.70508073       7.43264269       4.36302698      -0.21644098      -0.04454282       0.15211596       0.33799915      -0.57631962      -0.52122343
H        0.07827621       7.78841592       5.41495652       0.00818483      -0.10258407       0.11267956      -0.22010511       0.59141595      -0.02525332
H       -0.49102186       9.35080148       4.62895459       0.08402815       0.02471035       0.00774883      -0.02474494       0.36279455       0.63339245
9
Properties=species:S:1:pos:R:3:momenta:R:3:forces:R:3 R1=H R2=H R3=CH3 R4=CH3 leaving_group=Cl nucleophile=Cl rxn=sn2 config=rcc label=H_H_CH3_CH3_Cl_Cl_sn2_rcc conformation=0 reactant_id=H_H_CH3_CH3_Cl_none_-_r product_id=H_H_CH3_CH3_none_Cl_sn2_pc mp2_author_energy=-29302.391748605172 mp2_my_energy=0 hash=59123 address=T id=71 energy=-17370.346806417198 pbc="F F F"
C       -0.62735670       8.41371793       4.20836680      -0.27513357       0.41433335       0.39292811      -1.02690809       0.42654893       1.60237657
C        0.44269985       7.96665912       5.15380873      -0.10278030       0.29668756      -0.02020238       1.52878425      -0.02067344      -1.15467896
H        1.42148458       8.31769557       4.67851662       0.19298441      -0.25213044      -0.15054679      -1.05316116      -0.22715797       1.04352290
F       -2.67555669       7.86968533       5.41531032      -0.52207740       0.67983871       0.21919803      -0.28223851       0.03825647       0.28228620
Cl       1.15473777       8.84789042       1.34488440       0.65773104       1.45768297       0.34051741      -0.15045123      -0.04542866       0.52418973
H       -0.53071299       8.14219663       3.20828145       0.22414501       0.17608762      -0.10436912       0.16176650      -0.41754790      -1.15352576
H       -1.71256176       8.27495644       4.70745444      -0.25021991      -0.03998613      -0.04872881       1.20036225      -0.12978373      -0.51721873
H        0.50219865       6.85507764       5.09056239      -0.35507191      -0.05890651       0.12488303      -0.41011607       0.66952880       0.35519356
H        0.31925458       8.32670763       6.20515254       0.31811817      -0.13486182       0.28482007       0.03196206      -0.29374249      -0.98214550
9
Properties=species:S:1:pos:R:3:momenta:R:3:forces:R:3 R1=H R2=H R3=CH3 R4=CH3 leaving_group=Cl nucleophile=Cl rxn=sn2 config=rcc label=H_H_CH3_CH3_Cl_Cl_sn2_rcc conformation=0 reactant_id=H_H_CH3_CH3_Cl_none_-_r product_id=H_H_CH3_CH3_none_Cl_sn2_pc mp2_author_energy=-29302.391748605172 mp2_my_energy=0 hash=59123 address=T id=71 energy=-17370.36377229717 pbc="F F F"
C       -1.03640076       9.08074433       4.01692648      -0.07292202       0.88265336      -0.21037174       0.75983811       0.41974427      -1.67953913
C       -0.29979454       7.91445255       4.58064018      -0.67188235       0.47664427      -0.12444654      -0.16263793       0.81187731       1.85280895
H        0.54815887       8.31314645       5.17366000      -0.04915223       0.16762087       0.09802992      -0.04117753      -0.32514748      -0.76500780
F       -2.59161570       8.63636299       5.90774801       0.03450064      -0.10372839       0.49057781      -0.00786804       0.02167186      -0.00217643
Cl       1.52009901       9.53223125       1.94347583       0.57292049       0.57028537       0.70660332      -0.03982205      -0.03642597      -0.00388422
H       -0.62456950       9.71156860       3.18098385       0.08459936       0.01645625       0.12661266      -0.24297029      -1.12198808       1.17963732
H       -1.74323271       9.52407726       4.68201107       0.27312501      -0.07612015       0.10383502      -0.51873787       0.19982143       0.53732029
H       -0.07268270       7.10192228       3.93735246      -0.16715749      -0.01263568      -0.07716644       0.62889167      -0.20216539      -1.04898123
H       -0.94398427       7.48227951       5.35318624      -0.09110129       0.04711879      -0.30852307      -0.37551608       0.23261206      -0.07017776
9
Properties=species:S:1:pos:R:3:momenta:R:3:forces:R:3 R1=H R2=H R3=CH3 R4=CH3 leaving_group=Cl nucleophile=Cl rxn=sn2 config=rcc label=H_H_CH3_CH3_Cl_Cl_sn2_rcc conformation=0 reactant_id=H_H_CH3_CH3_Cl_none_-_r product_id=H_H_CH3_CH3_none_Cl_sn2_pc mp2_author_energy=-29302.391748605172 mp2_my_energy=0 hash=59123 address=T id=71 energy=-17370.405723316824 pbc="F F F"
C       -0.81129730       9.42415364       4.51820590       0.24180353      -0.09384268      -0.49101917       1.15400336       0.90285885       1.65335791
C       -1.14064725       8.24035796       3.70761188      -0.51005668       0.20719714      -0.42677622       0.47276453       0.20194561      -0.62117644
H       -1.20804953       7.46458036       4.46794112      -0.02667427      -0.10137847      -0.13786798      -0.31454691      -0.32834620      -0.16252897
F       -2.63131222       9.65877981       6.16503700       0.84765733       0.91696348       0.33869500       0.56947739      -0.24835047      -0.61100743
Cl       1.74015858      10.30860972       2.61544020       0.02586797       0.94574225       1.56279161      -0.16070057      -0.13336001       0.16505863
H        0.24407876       9.40023015       4.96144321      -0.32939822       0.19811421      -0.05391782      -1.83815739       0.10440707      -0.78345832
H       -1.65369284       9.64204407       5.30883305      -0.39160899      -0.07206066       0.04767377       0.40834054      -0.18594276      -0.45806141
H       -0.23188663       8.06409735       3.06214160      -0.00003178       0.00008941       0.14284019      -1.27063717       0.02750015       0.29940421
H       -2.09029387       8.38759980       3.12689678       0.04944518       0.10143346      -0.12246932       0.97945621      -0.34071224       0.51841182
9
Properties=species:S:1:pos:R:3:momenta:R:3:forces:R:3 R1=H R2=H R3=CH3 R4=CH3 leaving_group=Cl nucleophile=Cl rxn=sn2 config=rcc label=H_H_CH3_CH3_Cl_Cl_sn2_rcc conformation=0 reactant_id=H_H_CH3_CH3_Cl_none_-_r product_id=H_H_CH3_CH3_none_Cl_sn2_pc mp2_author_energy=-29302.391748605172 mp2_my_energy=0 hash=59123 address=T id=71 energy=-17370.373025464804 pbc="F F F"
C       -0.74675619      10.26165418       4.91394744       0.01066674      -0.22592636       0.46161886      -3.52425906       0.51169442      -0.48395290
C       -1.46223555       9.83678894       3.66933989      -0.51508985       1.12624797       0.18923688       0.25042770      -1.42995438       0.20472944
H       -2.28437904       9.12725968       3.97507434      -0.13111886       0.03677455       0.34387292       0.84171074       0.74970764      -0.14393831
F       -2.88298210       9.76076911       6.12987732      -0.21995430       0.34165394      -0.31272389       1.22381287       0.29659529      -0.82227098
Cl       1.93472519      10.68160754       3.10330735       0.96090271       0.89418352       0.61370320      -0.00177746       0.01141273       0.00763041
H        0.18955267       9.90214958       5.04585743      -0.15520511       0.00257939      -0.28754450       2.35971667      -0.94109501       0.56422361
H       -1.47610562      10.34562347       5.71995901       0.14210311      -0.12212135       0.01430406      -0.16893635      -0.03763294       0.67800791
H       -0.77695490       9.40901178       2.92933896      -0.17114773       0.06985317      -0.05433487      -0.14986948      -0.21721726       0.37775620
H       -1.86454768      10.68417862       3.18126587      -0.01144902      -0.08210443      -0.13318345      -0.83082562       1.05648950      -0.38218539
9
Properties=species:S:1:pos:R:3:momenta:R:3:forces:R:3 R1=H R2=H R3=CH3 R4=CH3 leaving_group=Cl nucleophile=Cl rxn=sn2 config=rcc label=H_H_CH3_CH3_Cl_Cl_sn2_rcc conformation=0 reactant_id=H_H_CH3_CH3_Cl_none_-_r product_id=H_H_CH3_CH3_none_Cl_sn2_pc mp2_author_energy=-29302.391748605172 mp2_my_energy=0 hash=59123 address=T id=71 energy=-17370.22228229956 pbc="F F F"
C       -1.08449417      11.03206468       4.79927148      -0.59771314       0.42933980      -0.01527226       0.63324923       0.54795614      -1.40528273
C       -1.58529611      12.40468538       4.48912062       0.51123482       1.13618978       0.48990836      -1.14989043      -0.84088081      -2.16972431
H       -1.08233625      13.11822370       5.09023169      -0.04698079      -0.08136701       0.11519527       0.68769774       0.88026414       0.18581385
F       -3.03427578      10.04321204       5.77217596       0.15844296       0.33416673      -0.46639475      -1.92306493      -0.94553444       0.86183903
Cl       2.11870053      11.19547241       3.82128723      -0.37845593       0.82126361       1.15978687      -0.46191153       0.08404499       0.12047305
H       -0.28123829      10.98243252       5.44370481       0.43339152      -0.07983466       0.15463879       1.63934167      -0.03755494       0.81815413
H       -1.97426356      10.44633337       5.26025997      -0.00739834       0.03729496      -0.23103777       0.20099861       0.21344341      -0.30137273