9
Properties=species:S:1:pos:R:3:momenta:R:3:forces:R:3 R1=H R2=H R3=CH3 R4=CH3 leaving_group=Cl nucleophile=Cl rxn=sn2 config=rcc label=H_H_CH3_CH3_Cl_Cl_sn2_rcc conformation=0 reactant_id=H_H_CH3_CH3_Cl_none_-_r product_id=H_H_CH3_CH3_none_Cl_sn2_pc mp2_author_energy=-29302.391748605172 mp2_my_energy=0 hash=59123 address=T id=71 energy=-17370.412368016237 pbc="F F F"
C        0.12542541       0.11270554      -0.00029240      -0.38544208       0.18137816      -0.88123616      -0.09214561       1.11788396      -0.00082481
C        1.62503867       0.00847468       0.00156754       0.44905738       0.57044011      -1.04781238      -0.06338950      -0.85342640       0.00215309
H        1.99473018      -0.50605055       0.89354482       0.06407771       0.20195297      -0.33040241       0.00320508       0.00300841       0.00517082
F        0.89788639       2.64149152      -0.00442372      -0.72835586       0.03592175      -0.46515296      -0.23271315      -0.10403772      -0.00076135
Cl      -0.69504884      -1.53494042       0.00509220      -0.32086907       1.91116770      -0.43280379       0.38207948      -0.16174994      -0.00050876
H       -0.22306082       0.64592326      -0.87549887      -0.07199216      -0.11348355       0.26723788      -0.00302890      -0.00293595      -0.00472561
H       -0.22431889       0.65275656       0.87018381      -0.06044273       0.09781198       0.13265874      -0.00396382      -0.00350204       0.00469305
H        1.88822962       1.08069343      -0.00059746       0.10676174      -0.13447740       0.16190225       0.00778691       0.00253743      -0.00033365
H        1.99700981      -0.51031959      -0.88698835      -0.15276832      -0.31856186       0.13185998       0.00216950       0.00222225      -0.00486279
9
Properties=species:S:1:pos:R:3:momenta:R:3:forces:R:3 R1=H R2=H R3=CH3 R4=CH3 leaving_group=Cl nucleophile=Cl rxn=sn2 config=rcc label=H_H_CH3_CH3_Cl_Cl_sn2_rcc conformation=0 reactant_id=H_H_CH3_CH3_Cl_none_-_r product_id=H_H_CH3_CH3_none_Cl_sn2_pc mp2_author_energy=-29302.391748605172 mp2_my_energy=0 hash=59123 address=T id=71 energy=-17370.17005994577 pbc="F F F"
C       -0.04769665       0.98926948      -0.81509074      -0.26789376       0.28156565      -0.61804512      -2.21791064      -0.24981009      -1.84643876
C        0.67878851       0.66793982      -2.11536628      -0.33620433       1.16876104      -1.03505893       0.30346209       0.02905929       0.59099810
H        1.44671239      -0.06982986      -1.97042490      -0.19245448      -0.04627487       0.00981487       0.31696619      -0.74746385       0.51458940
F        0.50608502       3.57202646      -0.84766571      -0.14690086       0.53851256      -0.96085952       0.08705312      -0.37760398      -0.09001125
Cl      -0.93432460      -0.62679428      -0.36356804      -0.31544308       1.31659609      -0.42054324       0.48269294       0.44654206      -0.11198822
H       -0.83199979       1.75630447      -0.93560982       0.04930964      -0.08563069      -0.07014500       0.65566986      -0.50455085       0.01228175
H        0.54527476       1.25696397      -0.00781429      -0.01078788      -0.03981297      -0.03622788       1.19368354       0.41638275       1.32006577
H        1.24825213       1.51992565      -2.46353437      -0.25208304      -0.13037871      -0.20855183      -0.60855530       0.54774079      -0.18122670
H        0.01187256       0.20718077      -2.84060395      -0.00333324       0.25978173       0.03410166      -0.21306180       0.43970389      -0.20827010
9
Properties=species:S:1:pos:R:3:momenta:R:3:forces:R:3 R1=H R2=H R3=CH3 R4=CH3 leaving_group=Cl nucleophile=Cl rxn=sn2 config=rcc label=H_H_CH3_CH3_Cl_Cl_sn2_rcc conformation=0 reactant_id=H_H_CH3_CH3_Cl_none_-_r product_id=H_H_CH3_CH3_none_Cl_sn2_pc mp2_author_energy=-29302.391748605172 mp2_my_energy=0 hash=59123 address=T id=71 energy=-17370.270326282236 pbc="F F F"
C       -0.47660970       1.85485815      -1.56111678      -0.11423002       0.85868615      -0.11874753      -2.00900486       0.86247032       0.65726507
C       -0.97375774       2.05114538      -2.96786056      -1.32251507       0.38380536      -0.18358509      -1.09094737      -0.92350698       0.51539123
H       -0.55905335       1.25949337      -3.58016901       0.06340240       0.07094148       0.02619990       0.11859798       0.15620882      -0.59238803
F        0.49618436       4.18910806      -2.27098843       0.68471912       0.92219833      -1.28993210       0.32781668       0.64402641       0.17731352
Cl      -0.97224854       0.14491540      -1.01621879       0.01789197       0.50647937      -1.23789861       0.21267520       0.39456022      -0.14255251
H       -0.98513284       2.58206642      -0.87438514      -0.18503011       0.00766524       0.08186656       0.68166396      -0.84838394      -0.58502732
H        0.56692006       2.00911819      -1.50642587      -0.13058397       0.06705671       0.03673619       0.99861308      -0.11608166       0.18284477
H       -0.70994112       3.07266735      -3.18438854      -0.04676087      -0.03087468       0.00270976       0.97141004       0.33832417      -0.31717044
H       -2.06280511       2.02481723      -3.02351527      -0.18218295      -0.09883281      -0.03938592      -0.21082471      -0.50761736       0.10432369
9
Properties=species:S:1:pos:R:3:momenta:R:3:forces:R:3 R1=H R2=H R3=CH3 R4=CH3 leaving_group=Cl nucleophile=Cl rxn=sn2 config=rcc label=H_H_CH3_CH3_Cl_Cl_sn2_rcc conformation=0 reactant_id=H_H_CH3_CH3_Cl_none_-_r product_id=H_H_CH3_CH3_none_Cl_sn2_pc mp2_author_energy=-29302.391748605172 mp2_my_energy=0 hash=59123 address=T id=71 energy=-17370.282797337153 pbc="F F F"
C       -0.81374416       2.62106884      -2.54528116       0.03096091      -0.32900723      -1.02732784      -0.37125102       0.11597470       0.18119233
C       -2.17516484       3.17173994      -2.96131526       0.15505455       0.71752980       0.23332233       1.43428423       0.95284698      -1.25847477
H       -2.61985042       2.65771897      -3.84272877       0.12856597       0.09520076      -0.06417151       0.35627776       0.03344269       0.64105864
F        0.26314228       4.72011096      -3.66442135      -1.25121696       0.23821470      -0.78970572      -0.26445566       0.17603105      -0.05733079
Cl      -1.06834294       0.97828987      -1.79207926      -0.48118796       1.49536595      -0.93991686      -0.31758066      -0.61494008       0.38626270
H       -0.36880626       3.27376667      -1.79035030       0.14555669       0.12484483      -0.04178419      -0.02354120      -0.25774954      -0.33717982
H       -0.12774548       2.47858942      -3.35997132      -0.19872698       0.08053126      -0.02985592       0.03912218       0.33619545      -0.18418533
H       -1.78036870       4.19976637      -3.32404977       0.26371794       0.12465784      -0.10125436      -0.83458341      -1.10887571       0.70113528
H       -2.87002464       3.14023102      -2.12049285      -0.01169226       0.14792104       0.03041778      -0.01827221       0.36707445      -0.07247824
9
Properties=species:S:1:pos:R:3:momenta:R:3:forces:R:3 R1=H R2=H R3=CH3 R4=CH3 leaving_group=Cl nucleophile=Cl rxn=sn2 config=rcc label=H_H_CH3_CH3_Cl_Cl_sn2_rcc conformation=0 reactant_id=H_H_CH3_CH3_Cl_none_-_r product_id=H_H_CH3_CH3_none_Cl_sn2_pc mp2_author_energy=-29302.391748605172 mp2_my_energy=0 hash=59123 address=T id=71 energy=-17370.2980200064 pbc="F F F"
C       -1.11879667       3.37169992      -3.59526930      -0.71766638       0.44221673       0.02249158      -0.68481541      -1.48940303      -0.95188177
C       -2.00241920       4.34436379      -2.94027014       0.07749539       0.12471570      -0.40765559       0.17386862       0.66431283       0.61084243
H       -3.03904118       3.96879244      -2.93718285      -0.09515068      -0.20603815       0.23529631       0.24033178       0.60573145      -0.17952970
F       -0.60277707       5.38926067      -5.16175931      -0.29836698       0.39585483      -1.22187540      -0.05628962      -0.42015631       0.35747991
Cl      -1.42769885       1.76681582      -2.53695321      -0.26384835       1.13633752      -1.25380941       0.39799994       0.50585030      -0.60923689
H       -0.08025368       3.59063487      -3.54479474       0.02936737      -0.02583353      -0.12230328       0.66994767       0.11697769       0.07985757
H       -1.40909482       3.11649820      -4.62198874      -0.05740477       0.10396972       0.11784161       0.23370188       0.11552331       0.48911693
H       -1.74871028       5.27159043      -3.50404838       0.16152141       0.13429237       0.16876755      -0.67358346      -0.36676253       0.04956736
H       -1.65143666       4.41617085      -1.90715505       0.10414663       0.23804248       0.08724096      -0.30116140       0.26792629       0.15378417
9
Properties=species:S:1:pos:R:3:momenta:R:3:forces:R:3 R1=H R2=H R3=CH3 R4=CH3 leaving_group=Cl nucleophile=Cl rxn=sn2 config=rcc label=H_H_CH3_CH3_Cl_Cl_sn2_rcc conformation=0 reactant_id=H_H_CH3_CH3_Cl_none_-_r product_id=H_H_CH3_CH3_none_Cl_sn2_pc mp2_author_energy=-29302.391748605172 mp2_my_energy=0 hash=59123 address=T id=71 energy=-17370.33418860964 pbc="F F F"
C       -1.75079716       4.12455503      -4.33757874      -0.40957343       0.25149247      -1.09635181      -0.40238320       1.14127944      -0.54252283
C       -1.34074489       5.33686469      -3.49714642       0.62582077       0.29352118      -0.65517590      -0.65556495      -0.95393174       0.91594956
H       -2.00892651       5.43212007      -2.59879763       0.09764311       0.31393797      -0.15985787       0.50083825       0.18972131      -0.83286911
F       -1.60639873       5.87263565      -6.21520476      -0.54923755       1.34064636      -0.88851873      -0.04641310       0.25259680      -0.34003857
Cl      -1.74702875       2.63089039      -3.30631844      -0.27833904       0.86417421      -0.00666466      -0.00572822      -0.54977210       0.59008292
H       -1.07504768       4.04275997      -5.15735520      -0.19482646      -0.14144347      -0.11148926       0.53490478      -0.31206241      -0.38506475
H       -2.73325034       4.23294408      -4.83619514      -0.13441598      -0.08606755       0.04876401       0.53451395       0.07892664       0.74175060
H       -1.42611747       6.11601766      -4.25643538      -0.30015109       0.02420686       0.20509599      -0.12783927       0.31946231       0.04755971
H       -0.29901432       5.26466592      -3.13871714      -0.07201952      -0.17376365      -0.05741238      -0.33232824      -0.16622025      -0.19484752
9
Properties=species:S:1:pos:R:3:momenta:R:3:forces:R:3 R1=H R2=H R3=CH3 R4=CH3 leaving_group=Cl nucleophile=Cl rxn=sn2 config=rcc label=H_H_CH3_CH3_Cl_Cl_sn2_rcc conformation=0 reactant_id=H_H_CH3_CH3_Cl_none_-_r product_id=H_H_CH3_CH3_none_Cl_sn2_pc mp2_author_energy=-29302.391748605172 mp2_my_energy=0 hash=59123 address=T id=71 energy=-17370.303605292105 pbc="F F F"
C       -2.04383970       4.86789022      -4.91519717       0.17812911       0.59073146      -0.16530531      -0.45290327       0.74873737      -0.22186049
C       -0.82566443       5.70423308      -4.57443757      -0.04674144       0.34967461      -0.96654141      -1.33212261      -0.65935664      -1.55573352
H       -0.84958423       6.01275278      -3.57056595       0.06234838      -0.04012816      -0.08056727      -0.08604617       0.61955521       1.41440346
F       -2.48264516       6.49360555      -6.87612453      -0.86567064      -0.10843077       0.05271886       0.39576739      -0.80685904       1.22175459
Cl      -2.04100329       3.32717489      -3.76395037      -1.04864697       1.62892229      -1.60972647       0.26344712       0.52090489      -0.03250604
H       -2.06823985       4.46266243      -5.89551510       0.18126406      -0.03074260       0.12431446       0.16136108       0.03788188      -0.66011438
H       -2.97926440       5.35742705      -4.70011240      -0.06366945       0.15409084       0.14642814      -0.05802903       0.13024528      -0.07700126
H       -0.88900616       6.53133141      -5.29686629       0.26764043      -0.18960001      -0.08144009      -0.03111643      -0.20607051       0.15285283
H        0.02782993       5.09119560      -4.71975305       0.10875748       0.35759191      -0.16722677       1.13964191      -0.38503845      -0.24179519
9
Properties=species:S:1:pos:R:3:momenta:R:3:forces:R:3 R1=H R2=H R3=CH3 R4=CH3 leaving_group=Cl nucleophile=Cl rxn=sn2 config=rcc label=H_H_CH3_CH3_Cl_Cl_sn2_rcc conformation=0 reactant_id=H_H_CH3_CH3_Cl_none_-_r product_id=H_H_CH3_CH3_none_Cl_sn2_pc mp2_author_energy=-29302.391748605172 mp2_my_energy=0 hash=59123 address=T id=71 energy=-17370.23773975375 pbc="F F F"
C       -2.56305216       5.73734275      -5.68846935      -0.78095833       0.56730304      -0.85449326       0.17051170      -1.57493723      -0.10748835
C       -1.30226348       5.78042463      -6.49044206      -0.65939244      -0.41038099      -1.34514452       0.92986827      -1.24772546       0.48334347
H       -0.43804605       6.01959715      -5.85546595      -0.08110914       0.15032681      -0.47365770      -0.15540730       0.07685691      -0.19498064
F       -3.14478145       7.42210371      -7.43442631      -0.75003164       1.62143560      -0.68023504      -0.85658750       1.46307893      -1.32171037
Cl      -2.18995272       4.46682413      -4.38275176       0.19216429       2.09578243      -0.66595037      -0.30637913      -0.27433221       0.57452953
H       -3.44046652       5.43435369      -6.29141193       0.21011629      -0.03518101      -0.31658989       0.66614480       0.11783177       0.59243549
H       -2.74433147       6.69398233      -5.25327017       0.05615117       0.20980416      -0.04349251      -0.25832471       0.34837302       0.51366871
H       -1.52421351       6.49119841      -7.23270416       0.11091896      -0.16027605       0.31991333      -0.13704719       1.47183784      -0.85817405
H       -1.08649437       4.85417620      -7.02714167      -0.10843117      -0.03546036       0.00428392      -0.05277895      -0.38098357       0.31837620
9
Properties=species:S:1:pos:R:3:momenta:R:3:forces:R:3 R1=H R2=H R3=CH3 R4=CH3 leaving_group=Cl nucleophile=Cl rxn=sn2 config=rcc label=H_H_CH3_CH3_Cl_Cl_sn2_rcc conformation=0 reactant_id=H_H_CH3_CH3_Cl_none_-_r product_id=H_H_CH3_CH3_none_Cl_sn2_pc mp2_author_energy=-29302.391748605172 mp2_my_energy=0 hash=59123 address=T id=71 energy=-17370.217443128367 pbc="F F F"
C       -2.84035590       6.81242338      -6.83569472       0.04342370       0.76585972      -0.91406774      -0.22107939       0.08142820       0.69878503
C       -2.87147495       5.86156854      -7.97054036      -0.66959743       0.49117020       0.31458741       0.18179746       0.25423300      -0.57910632
H       -1.90280667       5.48589843      -8.25169032      -0.15169843      -0.05567882       0.06373704       0.64284335      -0.45156335       0.43238177
F       -3.77753153       8.60633779      -8.33661822      -0.55892476       0.96894570      -1.47741019       0.16055603      -0.41396064       0.11068474
Cl      -2.16897870       5.78955207      -5.26215530       0.30648385       0.96297716      -1.28300099      -0.46915444       0.15977541      -0.73571957
H       -3.82574981       7.24526397      -6.59557958      -0.13683350      -0.11183307       0.12694394       0.91887323      -0.14411745      -0.05572596
H       -2.03726043       7.50122675      -6.95942643       0.02799357      -0.06653994      -0.00171421      -0.02000967       0.84862576       0.08584132
H       -3.12888744       6.48625170      -8.82913812      -0.28943561       0.03896029       0.01298384      -0.75052546       0.08460132       0.29154652
H       -3.53813134       5.04292287      -7.77305316      -0.01531508       0.19875252      -0.07615196      -0.44330112      -0.41902224      -0.24868754
9
Properties=species:S:1:pos:R:3:momenta:R:3:forces:R:3 R1=H R2=H R3=CH3 R4=CH3 leaving_group=Cl nucleophile=Cl rxn=sn2 config=rcc label=H_H_CH3_CH3_Cl_Cl_sn2_rcc conformation=0 reactant_id=H_H_CH3_CH3_Cl_none_-_r product_id=H_H_CH3_CH3_none_Cl_sn2_pc mp2_author_energy=-29302.391748605172 mp2_my_energy=0 hash=59123 address=T id=71 energy=-17370.266755922166 pbc="F F F"
C       -3.14730653       7.58627656      -7.61996557       0.25841060       0.04915627      -0.38459768       0.18182755      -0.30572345       0.77545506
C       -4.21074717       6.62322235      -7.98803988      -0.96206801       0.12283938      -0.02864186      -1.69613002      -0.02685278      -0.61030309
H       -3.82064482       5.71915133      -8.46199154      -0.20976220       0.08407722      -0.07533933       0.07621577       0.15855360      -0.03102695
F       -4.07562981       9.18880691      -9.30539936       0.23092201       0.23216699      -0.13327638       0.09536096      -0.51961807       0.40208903
Cl      -2.11218877       6.63083275      -6.22903158      -0.29804329       2.17623086      -2.03373908      -0.20250702       0.21595339      -0.12722957
H       -3.52047897       8.49222079      -7.14073221      -0.01264040      -0.00853923       0.20030377       0.43326384      -0.19771321      -0.42292390
H       -2.41948983       7.67285788      -8.40918127      -0.18974153      -0.10792411      -0.05632572      -0.06491982       0.64614333       0.00228253
H       -4.77645635       7.24840272      -8.71292867       0.08844710      -0.06406994      -0.09292748       0.36191684      -0.41160875       0.06789062
H       -4.93911370       6.29827386      -7.21068623      -0.03927075       0.02288808       0.06514905       0.81497190       0.44086594      -0.05623374
9
Properties=species:S:1:pos:R:3:momenta:R:3:forces:R:3 R1=H R2=H R3=CH3 R4=CH3 leaving_group=Cl nucleophile=Cl rxn=sn2 config=rcc label=H_H_CH3_CH3_Cl_Cl_sn2_rcc conformation=0 reactant_id=H_H_CH3_CH3_Cl_none_-_r product_id=H_H_CH3_CH3_none_Cl_sn2_pc mp2_author_energy=-29302.391748605172 mp2_my_energy=0 hash=59123 address=T id=71 energy=-17370.261994676537 pbc="F F F"
C       -3.41791794       8.33074598      -8.59855898       0.18833360       0.52711448      -0.84071146      -1.65006783      -0.97470645      -0.30004230
C       -4.77377465       8.22662055      -7.93835913       0.17183803       0.91446078      -0.54432213       0.25856672      -0.36953785      -0.98386927
H       -5.05440209       7.18814171      -7.84114667       0.19235481       0.11142236       0.01437867      -0.07600417      -0.42557575       0.28148529
F       -4.77668487       9.56212412     -10.28761175      -0.19177932      -0.62230737       0.44464399       0.57224950      -0.33562370       0.33147901
Cl      -2.28105515       7.43107457      -7.33501853      -1.56268916       1.67538700      -2.43152257       0.49462199      -0.10204666      -0.00929087
H       -3.06934575       9.32822195      -8.66483472       0.01622251       0.12845719       0.08170041       0.39934328       0.61454322      -0.41258941
H       -3.42354565       7.72663802      -9.52427779      -0.19843303      -0.14266450       0.21529269       0.39804998       0.77153955       0.55447115
H       -5.36982982       8.68689658      -8.71488967       0.02794792       0.21573601       0.02366226      -0.48661564       0.44200146      -0.16352069
H       -4.85357875       8.72910023      -6.99885146       0.01935586       0.14829878       0.04256968       0.08985617       0.37940618       0.70187708
9
Properties=species:S:1:pos:R:3:momenta:R:3:forces:R:3 R1=H R2=H R3=CH3 R4=CH3 leaving_group=Cl nucleophile=Cl rxn=sn2 config=rcc label=H_H_CH3_CH3_Cl_Cl_sn2_rcc conformation=0 reactant_id=H_H_CH3_CH3_Cl_none_-_r product_id=H_H_CH3_CH3_none_Cl_sn2_pc mp2_author_energy=-29302.391748605172 mp2_my_energy=0 hash=59123 address=T id=71 energy=-17370.210817788004 pbc="F F F"
C       -4.01148965       9.07109149      -9.29521906       0.39793386       0.24075689      -1.04883560       0.80325311      -2.18321091       0.97485736
C       -4.62898297       9.97469402      -8.31561072      -0.18260964       1.18337836      -0.89591987      -1.21835829       0.39969812       0.21020172
H       -5.05539391       9.49502960      -7.42524598       0.02394223       0.14391117      -0.08115280       0.22185171      -0.16076016      -0.22080267
F       -5.51214567       9.78583987     -11.06722777      -0.41129900       0.19732972       0.28559064      -1.43495801       0.79290323      -1.27812199
Cl      -2.57433148       8.18951977      -8.42654108      -0.90749224       1.28835487      -1.61261222       0.46232690      -0.38576420       0.60751277
H       -3.54368034       9.57214343     -10.09996584      -0.23203622       0.20275165      -0.06074961       0.08870647       0.35503946      -0.72741726
H       -4.71503568       8.30178380      -9.66280878      -0.11330858      -0.07158169       0.21992021       0.72716764       0.54489395       0.20817051
H       -5.44036378      10.36642817      -8.93521870      -0.09518043      -0.00854039       0.06171891       0.02392286       0.24541572       0.10596434
H       -3.96550748      10.76038375      -7.99644951       0.11205089      -0.06313534      -0.02163257       0.32608760       0.39178479       0.11963522
9
Properties=species:S:1:pos:R:3:momenta:R:3:forces:R:3 R1=H R2=H R3=CH3 R4=CH3 leaving_group=Cl nucleophile=Cl rxn=sn2 config=rcc label=H_H_CH3_CH3_Cl_Cl_sn2_rcc conformation=0 reactant_id=H_H_CH3_CH3_Cl_none_-_r product_id=H_H_CH3_CH3_none_Cl_sn2_pc mp2_author_energy=-29302.391748605172 mp2_my_energy=0 hash=59123 address=T id=71 energy=-17370.262127642538 pbc="F F F"
C       -4.42731620       9.65089255     -10.14582969      -0.01703567       0.18632497      -1.15601187      -1.36924158       1.41451792      -0.53903427
C       -4.29504102      11.15572018     -10.00950324       0.38210755       0.90857512      -0.85764557      -0.49010351       0.04367725       0.36021790
H       -4.35763857      11.47662548      -8.94276914       0.09225027       0.12332941      -0.00718533       0.14856090      -0.17053690      -0.75011961
F       -6.53808874      10.44116808     -11.24144541      -0.29354353      -0.28587024       0.38896719       0.93763536      -0.70409146       0.41044259
Cl      -2.87061265       9.03148329      -9.22169850      -1.20318607       1.29640413      -1.34855268       0.12661705      -0.51783407       0.15407923
H       -4.29641836       9.35704579     -11.16979668      -0.22550090       0.21385810      -0.02550063      -0.01602526      -0.27706943      -0.25986879
H       -5.33059397       9.19522849      -9.73373901      -0.16759618       0.29769973       0.11883075       0.44064641       0.32390574       0.03269452
H       -5.15860195      11.51462193     -10.59712097       0.09657302       0.22774334      -0.15136404       0.05131650      -0.10302782       0.34152690
H       -3.36596508      11.49440903     -10.47108368      -0.03494377       0.06307616      -0.03205974       0.17059413      -0.00954122       0.25006154
9
Properties=species:S:1:pos:R:3:momenta:R:3:forces:R:3 R1=H R2=H R3=CH3 R4=CH3 leaving_group=Cl nucleophile=Cl rxn=sn2 config=rcc label=H_H_CH3_CH3_Cl_Cl_sn2_rcc conformation=0 reactant_id=H_H_CH3_CH3_Cl_none_-_r product_id=H_H_CH3_CH3_none_Cl_sn2_pc mp2_author_energy=-29302.391748605172 mp2_my_energy=0 hash=59123 address=T id=71 energy=-17370.162233095904 pbc="F F F"
C       -4.86575474      10.92968540     -10.97107407      -1.16625394       0.44352940       0.00691737       0.97628366      -0.95919728       0.62591107
C       -4.43180522      11.68410043     -12.17152401      -1.30099828      -0.73242854      -0.73248694      -0.80642780      -0.18769635      -1.53418088
H       -3.65524669      12.43260337     -12.13064268       0.06561259       0.03636033       0.08885291       0.20410456       0.20711042       0.93930345
F       -7.26445362      11.32159917     -11.31179027       0.57659923       1.33946170      -0.81477691      -0.79728252       0.40781836      -0.34852973
Cl      -3.27653549      10.11219038     -10.25767461       0.23854685       2.04535534      -2.20106390       0.33737573       0.06813333       0.18229041
H       -5.54405079      10.11119872     -11.16925108       0.04668451       0.11233080       0.06663053       0.20462002       0.15355066      -0.27176881
H       -5.34770502      11.50556731     -10.19994563      -0.03848951       0.32471124      -0.06083139       0.26208139       0.28846289       0.16206774
H       -5.37297289      12.16570511     -12.43949559      -0.16588187       0.15114467       0.00219335       0.03000894      -0.01511718      -0.23940190
H       -4.10221073      11.02377301     -12.99956338       0.05325900       0.01832939      -0.14280455      -0.41076399       0.03693516       0.48430864
9
Properties=species:S:1:pos:R:3:momenta:R:3:forces:R:3 R1=H R2=H R3=CH3 R4=CH3 leaving_group=Cl nucleophile=Cl rxn=sn2 config=rcc label=H_H_CH3_CH3_Cl_Cl_sn2_rcc conformation=0 reactant_id=H_H_CH3_CH3_Cl_none_-_r product_id=H_H_CH3_CH3_none_Cl_sn2_pc mp2_author_energy=-29302.391748605172 mp2_my_energy=0 hash=59123 address=T id=71 energy=-17370.136550579642 pbc="F F F"
C       -5.28297653      11.80970093     -11.69605684       0.29005810       0.14938445      -0.56771666      -2.13461052      -0.85471235       1.51382115
C       -5.63368110      11.24546930     -13.01107606      -0.07124832      -0.35497239      -0.52670539       0.50459880      -0.17001099      -0.19687622
H       -5.06260979      11.83646781     -13.71382635      -0.10113967       0.04127598       0.01292203      -0.11877925      -0.16277198      -0.78442970
F       -7.60065942      12.76729731     -11.94642966       0.08732035       1.23918556       0.12157468       1.91725240      -0.72335827       0.42232912
Cl      -3.37363783      11.27549932     -11.41537046      -1.22208811       1.97633533      -1.64091755      -0.22012329       0.39894195      -0.25980713
H       -5.68444197      11.23070983     -10.86539248       0.00113503       0.13282123      -0.09959007      -0.24044784       0.35301669      -0.25008319
H       -5.47117710      12.83440804     -11.50101138      -0.20155964       0.02729702      -0.26771750       0.10559294       0.81677349      -0.25225416
H       -6.71076871      11.38297048     -13.09720265      -0.02703840      -0.17813190      -0.14781368       0.02401225       0.37035824      -0.01189936
H       -5.36139799      10.19212469     -13.05710744      -0.08929548      -0.08390754       0.12835862       0.16250452      -0.02823679      -0.18080051
9
Properties=species:S:1:pos:R:3:momenta:R:3:forces:R:3 R1=H R2=H R3=CH3 R4=CH3 leaving_group=Cl nucleophile=Cl rxn=sn2 config=rcc label=H_H_CH3_CH3_Cl_Cl_sn2_rcc conformation=0 reactant_id=H_H_CH3_CH3_Cl_none_-_r product_id=H_H_CH3_CH3_none_Cl_sn2_pc mp2_author_energy=-29302.391748605172 mp2_my_energy=0 hash=59123 address=T id=71 energy=-17370.27146798655 pbc="F F F"
C       -5.60145361      12.80119560     -12.67879462      -0.75009800       1.21161509      -0.90148357       0.51373960      -0.45113354       0.51770760
C       -6.34678932      11.51398589     -12.84233699      -0.18139875       0.95680214       0.25637254      -0.53421187      -0.30667214      -0.27667531
H       -6.20605947      10.93516340     -13.78429423      -0.19466401      -0.12866956       0.19792737       0.49476868       0.65499019       0.58137273
F       -7.90849673      13.70406611     -12.67147460       0.17189276      -0.31822180      -0.57340124       0.17099549       0.14902344       0.03885195
Cl      -3.67281213      12.23737914     -12.70783900      -0.13159826       0.65953424      -1.93761420      -0.43410772       0.15786710       0.15856735
H       -5.73918401      13.33361727     -11.72736696      -0.28248608       0.14774749      -0.07052064       0.00673852      -0.55131546      -0.55765283
H       -5.62263469      13.46385572     -13.49998260       0.06155631       0.20570466      -0.01359017      -0.25889077       0.54586602      -0.70465309
H       -7.37967256      11.89311764     -12.84260949       0.03727683       0.20761798       0.03823331       0.01344722       0.03295822       0.19398343
H       -6.16833625      10.87250598     -11.98374885      -0.07487192       0.03045139      -0.00712544       0.02752085      -0.23158384       0.04849816
9
Properties=species:S:1:pos:R:3:momenta:R:3:forces:R:3 R1=H R2=H R3=CH3 R4=CH3 leaving_group=Cl nucleophile=Cl rxn=sn2 config=rcc label=H_H_CH3_CH3_Cl_Cl_sn2_rcc conformation=0 reactant_id=H_H_CH3_CH3_Cl_none_-_r product_id=H_H_CH3_CH3_none_Cl_sn2_pc mp2_author_energy=-29302.391748605172 mp2_my_energy=0 hash=59123 address=T id=71 energy=-17370.265065183277 pbc="F F F"
C       -6.05072196      13.56610405     -13.71144978       0.11178770      -0.49500850      -0.32119185      -0.84188281       0.56856357       0.26839720
C       -6.37825601      12.66716443     -12.55330971      -0.25718680       0.30776445       0.44186824       0.37965338       0.46747274       0.70457743
H       -6.18482157      11.60364487     -12.75781522       0.10182741      -0.00258873       0.00185994      -0.33217862       0.37226411      -0.08784078
F       -8.33263395      14.58558348     -13.53818272       0.31847504       0.83623279      -0.82677986       1.42545000      -0.77433673       0.02770227
Cl      -4.21075889      13.07448097     -14.08922837      -1.01230058       1.53928714      -1.67525355       0.40782148       0.07770064      -0.01227636
H       -6.05139353      14.63177500     -13.46799747      -0.19628044       0.07359978       0.03787318      -0.14771201      -0.55065357      -0.25973904
H       -6.50648341      13.31681333     -14.64683312      -0.18541209      -0.07379452       0.10235095      -0.57309167       0.23868631      -0.09893822