9
Properties=species:S:1:pos:R:3:momenta:R:3:forces:R:3 R1=H R2=H R3=CH3 R4=CH3 leaving_group=Cl nucleophile=Cl rxn=sn2 config=rcc label=H_H_CH3_CH3_Cl_Cl_sn2_rcc conformation=0 reactant_id=H_H_CH3_CH3_Cl_none_-_r product_id=H_H_CH3_CH3_none_Cl_sn2_pc mp2_author_energy=-29302.391748605172 mp2_my_energy=0 hash=59123 address=T id=71 energy=-17370.412368016237 pbc="F F F"
C        0.12542541       0.11270554      -0.00029240       0.63649110       0.32807630      -0.59417006      -0.09214561       1.11788396      -0.00082481
C        1.62503867       0.00847468       0.00156754      -0.00656798       0.16278172      -0.83696934      -0.06338950      -0.85342640       0.00215309
H        1.99473018      -0.50605055       0.89354482       0.16034496      -0.14598077      -0.10791676       0.00320508       0.00300841       0.00517082
F        0.89788639       2.64149152      -0.00442372       1.08475781      -0.45671069      -0.32706925      -0.23271315      -0.10403772      -0.00076135
Cl      -0.69504884      -1.53494042       0.00509220      -0.09448860      -0.19729631       1.41274477       0.38207948      -0.16174994      -0.00050876
H       -0.22306082       0.64592326      -0.87549887      -0.22940283       0.11009688      -0.11631305      -0.00302890      -0.00293595      -0.00472561
H       -0.22431889       0.65275656       0.87018381       0.31913617       0.10687499      -0.03678435      -0.00396382      -0.00350204       0.00469305
H        1.88822962       1.08069343      -0.00059746       0.10967853       0.09570776      -0.11992226       0.00778691       0.00253743      -0.00033365
H        1.99700981      -0.51031959      -0.88698835      -0.13849962      -0.37985032       0.19042367       0.00216950       0.00222225      -0.00486279
9
Properties=species:S:1:pos:R:3:momenta:R:3:forces:R:3 R1=H R2=H R3=CH3 R4=CH3 leaving_group=Cl nucleophile=Cl rxn=sn2 config=rcc label=H_H_CH3_CH3_Cl_Cl_sn2_rcc conformation=0 reactant_id=H_H_CH3_CH3_Cl_none_-_r product_id=H_H_CH3_CH3_none_Cl_sn2_pc mp2_author_energy=-29302.391748605172 mp2_my_energy=0 hash=59123 address=T id=71 energy=-17370.21240029798 pbc="F F F"
C        1.08070446      -0.07912442      -0.31982922      -0.54578879      -0.79979029      -0.13487561      -0.34564849       0.16443138       2.29760662
C        0.80896731      -0.71916887      -1.62308275      -0.05200985       0.17278412      -0.74333352      -1.31753013      -0.84034029      -0.16022906
H        0.97595373      -1.78143973      -1.53919621      -0.06144417       0.08653908      -0.00562776       0.39766389      -0.51792621      -0.16252430
F        2.85521980       1.62446627      -1.19101485       1.28530490      -1.38942754      -1.11141145       0.70729062       0.63804791      -0.56098565
Cl      -0.03066503      -0.94407662       0.96218044       2.00279539       1.41475452       1.10826375       0.29535381       0.22622222      -0.72789729
H        0.82704234       0.97805494      -0.33162923       0.06666123       0.01852281       0.16355861      -0.02689824      -0.09352790       0.16621338
H        2.10943965      -0.12847018       0.09098076      -0.04517113      -0.09437694       0.17311441      -0.77505060      -0.20559360      -0.70981159
H        1.42291073      -0.27535351      -2.38196095      -0.15959649      -0.00063308       0.06716059       0.27602144       0.28898765      -0.24509480
H       -0.27862722      -0.66060915      -1.87814555      -0.07855523       0.09869482      -0.21894840       0.78879771       0.33969885       0.10272267
9
Properties=species:S:1:pos:R:3:momenta:R:3:forces:R:3 R1=H R2=H R3=CH3 R4=CH3 leaving_group=Cl nucleophile=Cl rxn=sn2 config=rcc label=H_H_CH3_CH3_Cl_Cl_sn2_rcc conformation=0 reactant_id=H_H_CH3_CH3_Cl_none_-_r product_id=H_H_CH3_CH3_none_Cl_sn2_pc mp2_author_energy=-29302.391748605172 mp2_my_energy=0 hash=59123 address=T id=71 energy=-17370.220299209595 pbc="F F F"
C        1.92457299      -0.29908386      -0.34634586       1.20924593       0.59836781      -0.89459756      -0.76079736       0.25084463      -1.13227782
C        0.92810386       0.24366257      -1.41270048       0.64813835       0.65364161       0.53258757       1.26637406      -1.35304543      -0.55236869
H        0.10585745      -0.46101406      -1.58561020       0.13716531       0.07568533      -0.01244979       0.06134891       0.01106339       0.38382877
F        3.31309557      -0.52653705      -2.59368472      -0.61937069      -2.19240887      -0.67433614      -0.06405655       0.01410030       0.61650827
Cl       0.80705286      -0.40031453       1.21715945       0.99606622       0.45753819       0.41979131       0.98047256      -0.04389148      -0.70021082
H        2.76830110       0.36005511      -0.12553347      -0.00935506      -0.07026110       0.07598427      -0.52132463       0.13389057      -0.00966351
H        2.38936101      -1.25844017      -0.59960680      -0.05285095      -0.08949060       0.03261220      -0.70830436       0.21927335       0.08199668
H        1.51085811       0.27182246      -2.36862695       0.06701817      -0.00235653      -0.12034133      -0.03639696       0.04797283       0.89490078
H        0.52190027       1.19935807      -1.16041894      -0.10382740       0.10495373      -0.02061108      -0.21731567       0.71979183       0.41728634
9
Properties=species:S:1:pos:R:3:momenta:R:3:forces:R:3 R1=H R2=H R3=CH3 R4=CH3 leaving_group=Cl nucleophile=Cl rxn=sn2 config=rcc label=H_H_CH3_CH3_Cl_Cl_sn2_rcc conformation=0 reactant_id=H_H_CH3_CH3_Cl_none_-_r product_id=H_H_CH3_CH3_none_Cl_sn2_pc mp2_author_energy=-29302.391748605172 mp2_my_energy=0 hash=59123 address=T id=71 energy=-17370.272083772605 pbc="F F F"
C        2.27522029      -0.54095976      -0.66620673       0.00433511      -0.51764945       0.27303906       0.58233608      -0.65016151       0.94463487
C        2.69488737       0.48168389      -1.63361405       0.98486955      -1.06759056       0.22335889      -1.20523207       2.23911395       0.19909047
H        1.84408624       1.18934997      -1.82986942      -0.05892990      -0.10833884       0.18100437       0.71615332      -0.56994819      -0.07285757
F        2.19687319      -2.16076117      -2.69477376      -0.72364393      -0.40554135      -0.00941420       0.07527842      -0.08573033      -0.32805733
Cl       2.05749267       0.16972045       1.04887646       2.49034965       1.53834737      -1.06189393       0.13654513       0.59428648       0.01883525
H        3.06159718      -1.28105138      -0.57125174      -0.18422780      -0.08581313      -0.23281112      -0.43596283      -0.33909013       0.01897158
H        1.32637212      -0.93964756      -0.92944535      -0.20054476       0.42911188       0.00239552      -0.30582651      -0.69545614      -0.22799182
H        2.93413250      -0.09168154      -2.49645476       0.08622459      -0.01953763       0.00515489      -0.05386672      -0.60810482      -0.91401144
H        3.53696112       1.08643330      -1.33935785       0.10401780      -0.27436429      -0.10920253       0.49057520       0.11509069       0.36138599
9
Properties=species:S:1:pos:R:3:momenta:R:3:forces:R:3 R1=H R2=H R3=CH3 R4=CH3 leaving_group=Cl nucleophile=Cl rxn=sn2 config=rcc label=H_H_CH3_CH3_Cl_Cl_sn2_rcc conformation=0 reactant_id=H_H_CH3_CH3_Cl_none_-_r product_id=H_H_CH3_CH3_none_Cl_sn2_pc mp2_author_energy=-29302.391748605172 mp2_my_energy=0 hash=59123 address=T id=71 energy=-17370.184836453172 pbc="F F F"
C        2.57333011      -0.61242645      -0.77238018       0.32212951      -0.08033059       0.00399244       1.27496686       0.73454819       0.82581916
C        3.67892989      -1.35453778      -1.44858506       0.38514957      -1.03549091       0.84911891      -0.82107776      -1.47732129       0.03218791
H        4.22062080      -0.76564244      -2.18333939       0.09751421       0.11156305       0.01313430       0.45759340       0.24529656       0.40758591
F        1.33343371      -2.26946174      -2.26326344      -0.76258744       0.21461828       0.53499989      -0.89731881      -0.75734770      -0.62203648
Cl       3.56883472       0.72438630       0.31164411       1.78984771       0.25631924      -1.60239504      -0.45176694      -0.17989789      -0.06527823
H        2.02105759      -1.21437644      -0.05970320      -0.05157679       0.11721220       0.05564149       0.04292868       0.13653708      -0.03940423
H        1.93235305      -0.03446845      -1.39817903       0.23099321       0.00715376      -0.24654542      -0.31078078       0.27253756      -0.33689155
H        3.07296303      -2.12942763      -2.02637216      -0.02291785       0.12004906      -0.14571247       0.31731725       0.63215084       0.57432701
H        4.24881017      -1.84811169      -0.63730205       0.02957604      -0.12349881      -0.04963521       0.38813810       0.39349665      -0.77630951
9
Properties=species:S:1:pos:R:3:momenta:R:3:forces:R:3 R1=H R2=H R3=CH3 R4=CH3 leaving_group=Cl nucleophile=Cl rxn=sn2 config=rcc label=H_H_CH3_CH3_Cl_Cl_sn2_rcc conformation=0 reactant_id=H_H_CH3_CH3_Cl_none_-_r product_id=H_H_CH3_CH3_none_Cl_sn2_pc mp2_author_energy=-29302.391748605172 mp2_my_energy=0 hash=59123 address=T id=71 energy=-17369.98702828174 pbc="F F F"
C        3.47430479      -0.91429248      -1.16926326       0.18018866      -0.43441113      -0.46209344      -0.78270901       0.61743241       0.74494263
C        3.57425969      -1.81003987       0.02299803       0.07522448       0.68338698       0.15023366       0.00476651       1.37702217       1.50493609
H        4.54318546      -2.16083562       0.29425839      -0.19031300       0.39169493       0.13817905       0.90454492      -0.69233080      -0.60015361
F        1.04863005      -1.66193884      -1.42249488      -0.04166739       0.43053156       1.41880979       0.46915406      -0.12464729       0.03438076
Cl       5.05151958       0.37002083      -1.10076832       3.10046193      -1.54228808      -1.99765628      -0.09876769      -0.72064177      -0.00325320
H        2.64155959      -0.23280621      -1.05701542      -0.05972692       0.02818597      -0.26062139       0.03928996      -0.24336863      -0.46251969
H        3.45962412      -1.46931340      -2.09228896       0.08559386      -0.22075450       0.01964095       0.14267787       0.28069229      -0.36549250
H        2.83888739      -2.56901545      -0.14286985      -0.19683855      -0.11064263       0.12404100      -0.40213227      -0.55930944      -0.24598700
H        3.29874343      -1.28383445       0.96250899       0.05459090       0.15971108      -0.00590741      -0.27682435       0.06515106      -0.60685348
9
Properties=species:S:1:pos:R:3:momenta:R:3:forces:R:3 R1=H R2=H R3=CH3 R4=CH3 leaving_group=Cl nucleophile=Cl rxn=sn2 config=rcc label=H_H_CH3_CH3_Cl_Cl_sn2_rcc conformation=0 reactant_id=H_H_CH3_CH3_Cl_none_-_r product_id=H_H_CH3_CH3_none_Cl_sn2_pc mp2_author_energy=-29302.391748605172 mp2_my_energy=0 hash=59123 address=T id=71 energy=-17370.051747042322 pbc="F F F"
C        4.00483940      -1.09049845      -1.14215958       0.69431716       0.49519653       0.80433806      -0.18534623      -0.12963474      -0.45541879
C        4.10315243       0.11041224      -0.30429927       1.16938933       1.22756548      -0.99733182       0.99454709       0.73321579       0.29036072
H        4.99915108       0.11232111       0.36775035      -0.06808268      -0.22653840      -0.03290334      -0.85908312      -0.00010761      -0.52998405
F        1.63932567      -1.02954853      -0.27201814       0.74209293       0.13106594       0.65206578       0.31034105      -0.10873696      -0.15100974
Cl       6.01602463      -1.07809791      -2.08859804      -0.35906274      -2.16788229      -0.50423094      -0.54008867      -0.03114558       0.25566744
H        3.34733620      -0.98645253      -2.00906466       0.09576770      -0.02771314      -0.10119581       0.31308576      -0.38544535       0.37524756
H        4.04686722      -2.03445059      -0.61614370       0.04350253      -0.02381491      -0.01132883      -0.07898997      -0.12293833      -0.31459061
H        3.13283227       0.06190982       0.19148486       0.16062582      -0.07052514      -0.24342123      -0.21270444      -0.05435710       0.40748972
H        4.10367333       0.98799450      -0.95214379      -0.10155704       0.17690715      -0.25784504       0.25823854       0.09914987       0.12223776
9
Properties=species:S:1:pos:R:3:momenta:R:3:forces:R:3 R1=H R2=H R3=CH3 R4=CH3 leaving_group=Cl nucleophile=Cl rxn=sn2 config=rcc label=H_H_CH3_CH3_Cl_Cl_sn2_rcc conformation=0 reactant_id=H_H_CH3_CH3_Cl_none_-_r product_id=H_H_CH3_CH3_none_Cl_sn2_pc mp2_author_energy=-29302.391748605172 mp2_my_energy=0 hash=59123 address=T id=71 energy=-17369.890797940094 pbc="F F F"
C        4.70829502      -0.95179539      -0.95304850       0.25459516       0.82220929       0.39254266      -0.09041112       1.05932858       0.17752579
C        4.63303641       0.21704621      -1.92809473       0.02998146      -0.09438051      -0.72868449       1.64161259      -0.33605372       1.64873137
H        5.66654009       0.41172100      -2.23834872      -0.02857239       0.07846187      -0.33739470      -0.34206367       0.07843188      -0.21190278
F        3.18846101       0.24218834       0.61122969       1.19837456       0.65296551       0.40281668       0.17383608      -0.09385329      -0.24719200
Cl       6.23150982      -2.18145791      -2.40436115       0.29665877      -1.75697310      -0.31496790      -0.09751552      -0.06795155       0.08342667
H        3.91981726      -1.66035425      -0.93337356       0.10925037      -0.07248646      -0.01129819      -0.27383235      -0.39350077      -0.09329204
H        5.40620796      -0.98549699      -0.12664397       0.11117491       0.00529020      -0.05871894      -0.03691221       0.20386599      -0.40318520
H        4.24092951       1.12123364      -1.46688223      -0.04088138       0.06141738       0.05428414      -0.25329550      -0.27811500       0.23229893
H        4.05067595      -0.09972108      -2.74496358       0.04959862      -0.10115421       0.02506489      -0.72141829      -0.17215213      -1.18641075
9
Properties=species:S:1:pos:R:3:momenta:R:3:forces:R:3 R1=H R2=H R3=CH3 R4=CH3 leaving_group=Cl nucleophile=Cl rxn=sn2 config=rcc label=H_H_CH3_CH3_Cl_Cl_sn2_rcc conformation=0 reactant_id=H_H_CH3_CH3_Cl_none_-_r product_id=H_H_CH3_CH3_none_Cl_sn2_pc mp2_author_energy=-29302.391748605172 mp2_my_energy=0 hash=59123 address=T id=71 energy=-17370.090296948718 pbc="F F F"
C        5.77814518      -0.55845773      -1.28461876       0.48687396       0.74098763      -0.55637352      -0.05375559       0.15342508       0.44494084
C        4.33074092      -0.62329620      -1.62209010       0.65903708      -0.45217824       0.49034374       0.51084333       0.09151877      -0.26216861
H        4.08295686      -0.15324693      -2.55816805       0.03673836      -0.11127188      -0.02563861       0.11132426       0.40477253      -0.49641390
F        5.20503138       1.40123176       0.06026942       1.10646300      -0.49138847      -1.02177538      -0.13507082       0.16503691       0.12108180
Cl       6.27339992      -2.87149276      -2.50816958      -0.72533568      -0.21603522       0.44149374       0.14630944      -0.58368897      -0.26769600
H        6.05461467      -1.19374310      -0.44940556       0.22540712       0.20230253       0.14423555       0.05012735       0.27322810      -0.16071709
H        6.48655942      -0.48065878      -2.08080870      -0.10690829      -0.08502319      -0.09691856       0.04764323       0.16343031      -0.06145108
H        3.72844975      -0.15810789      -0.86784803       0.06217738      -0.02352619       0.14156549      -0.08625551       0.25037436       0.64487314
H        4.12197759      -1.65824458      -1.71413665      -0.02283075       0.08431933      -0.01803185      -0.59116570      -0.91809709       0.03755091
9
Properties=species:S:1:pos:R:3:momenta:R:3:forces:R:3 R1=H R2=H R3=CH3 R4=CH3 leaving_group=Cl nucleophile=Cl rxn=sn2 config=rcc label=H_H_CH3_CH3_Cl_Cl_sn2_rcc conformation=0 reactant_id=H_H_CH3_CH3_Cl_none_-_r product_id=H_H_CH3_CH3_none_Cl_sn2_pc mp2_author_energy=-29302.391748605172 mp2_my_energy=0 hash=59123 address=T id=71 energy=-17370.039288416334 pbc="F F F"
C        6.39473190      -0.56440841      -1.75888194       0.56236302      -0.49411780      -0.40195672      -0.34753568      -0.74472094      -1.68256677
C        5.81015764      -0.80511462      -0.47883631       1.22522091      -0.34600995      -0.05536768      -1.51216535       0.88690081       0.46558879
H        5.14123093       0.00936361      -0.24455140       0.13498562       0.05663394       0.10893644      -0.14803193       0.45892023       0.19567670
F        6.76849284       1.78334119      -1.42654252       0.54471670      -0.25952286      -1.11607709       0.10526719       0.88277713       0.22763118
Cl       6.05898064      -3.31052480      -2.44693923      -0.86912514       0.66434875       0.65992806       0.06892710       0.40997499       0.05871100
H        7.39549184      -0.83343390      -1.92870449       0.09821864       0.04508510       0.08353358       0.96383159      -0.40824615      -0.36860225
H        5.72419354      -0.51616042      -2.60442621       0.14891237      -0.20012930      -0.08055298       0.11567963      -0.09182629      -0.10206921
H        6.51852506      -0.87385775       0.29119635       0.31490881      -0.01939592      -0.04777179       1.07512049      -0.24442194       1.19160720
H        5.19266247      -1.66205773      -0.53740609       0.08088364       0.09514214       0.19703286      -0.32109305      -1.14935783       0.01402336
9
Properties=species:S:1:pos:R:3:momenta:R:3:forces:R:3 R1=H R2=H R3=CH3 R4=CH3 leaving_group=Cl nucleophile=Cl rxn=sn2 config=rcc label=H_H_CH3_CH3_Cl_Cl_sn2_rcc conformation=0 reactant_id=H_H_CH3_CH3_Cl_none_-_r product_id=H_H_CH3_CH3_none_Cl_sn2_pc mp2_author_energy=-29302.391748605172 mp2_my_energy=0 hash=59123 address=T id=71 energy=-17370.239074393645 pbc="F F F"
C        6.91154919      -0.67826347      -2.19564832       0.32828323      -0.45528804      -0.06181496       0.45865753      -0.08686370      -0.81346357
C        8.13505814      -0.97723113      -1.35363505      -0.12682484      -0.90721709      -0.71382920      -1.30025919      -0.23964180      -0.32696180
H        8.49677090      -0.03360822      -0.98041967       0.12583778       0.07634020      -0.03867433       0.24070766       0.31530767       0.27006083
F        7.85185674       1.54345753      -2.30453573       0.96746561       0.56022836      -0.63660417      -0.38500691      -0.86930804       0.06823796
Cl       5.73886215      -3.34983650      -1.85955768       0.51649208       0.45874510       0.89582010       0.18096053       0.22775482       0.02204646
H        6.80753051      -1.26168152      -3.12602841      -0.25253913       0.15323797      -0.02407393       0.22870982       0.48199319       0.70664803
H        5.97002279      -0.57479371      -1.69050604       0.01527279       0.03084568       0.14669041       0.02362038       0.22915655       0.29165150
H        8.86787571      -1.43266448      -1.98546227      -0.00196969      -0.19430110      -0.16802428       0.64472319      -0.11914296      -0.42392125
H        7.87332419      -1.69723730      -0.58575307       0.05585875      -0.05524783       0.12669678      -0.09211302       0.06074427       0.20570185
9
Properties=species:S:1:pos:R:3:momenta:R:3:forces:R:3 R1=H R2=H R3=CH3 R4=CH3 leaving_group=Cl nucleophile=Cl rxn=sn2 config=rcc label=H_H_CH3_CH3_Cl_Cl_sn2_rcc conformation=0 reactant_id=H_H_CH3_CH3_Cl_none_-_r product_id=H_H_CH3_CH3_none_Cl_sn2_pc mp2_author_energy=-29302.391748605172 mp2_my_energy=0 hash=59123 address=T id=71 energy=-17370.173174405358 pbc="F F F"
C        7.87966849      -0.97498001      -2.18103543       0.79815391       0.32243938       0.40673327       0.74310660      -0.49707570      -0.58729574
C        8.41970223      -1.83029292      -3.32412056      -0.37666045      -0.55719791      -0.31961601      -1.07343307       0.48585827      -0.45645659
H        9.45631076      -2.13247230      -3.27093021       0.18465388       0.04325974      -0.17237514       0.39832078       0.40936758       0.52782319
F        8.87985168       1.08033738      -2.88753967       0.72097868      -0.84239049      -0.63328072       0.03521734      -0.19007815       0.01349456
Cl       5.99083654      -2.89320657      -1.09329096       0.71769748       0.64031570       0.58818312       0.18620321       0.02090184      -0.10547445
H        6.86215057      -0.63119560      -2.25159512       0.04278098      -0.01407366      -0.05319802       0.00395723      -0.09501355      -0.11764902
H        8.25621240      -1.21802646      -1.20705424      -0.08813990      -0.17391545      -0.17435666      -0.06304026       0.00178902       0.24559168
H        8.29399454      -1.26175564      -4.26691843      -0.12600200       0.18574936      -0.09803758       0.01131723      -0.36697434       0.40057398
H        7.85156556      -2.75984993      -3.37722361      -0.13874180       0.04132295      -0.04896417      -0.24164907       0.23122502       0.07939239
9
Properties=species:S:1:pos:R:3:momenta:R:3:forces:R:3 R1=H R2=H R3=CH3 R4=CH3 leaving_group=Cl nucleophile=Cl rxn=sn2 config=rcc label=H_H_CH3_CH3_Cl_Cl_sn2_rcc conformation=0 reactant_id=H_H_CH3_CH3_Cl_none_-_r product_id=H_H_CH3_CH3_none_Cl_sn2_pc mp2_author_energy=-29302.391748605172 mp2_my_energy=0 hash=59123 address=T id=71 energy=-17370.103386474355 pbc="F F F"
C        8.70295487      -1.62213098      -2.72209428      -0.01270080      -1.09245444      -0.49130274      -1.19141051      -1.31566857      -0.55088682
C        7.66124949      -0.82329449      -3.46350896       0.41490597       0.87547941       0.31301619       0.66596597      -1.16138244       1.38103621
H        7.41637874      -1.37997393      -4.37458647       0.24312107       0.17095367      -0.24468000      -0.20932548       0.52805164       0.08299977
F       10.31753691      -0.78442265      -4.25484202       0.29450372      -1.62741079      -1.31775833       0.36689283       0.22431780      -0.37776839
Cl       6.93388176      -2.42104485      -0.60171424       1.29819372       0.90342664       0.96587358      -0.17979557      -0.05241926       0.13275210
H        8.96672059      -1.30562894      -1.73422103       0.26191077       0.00237949       0.10129892       0.01916519       0.20615509       0.01732235
H        8.39224060      -2.67304710      -2.81472107       0.02518377      -0.11454184      -0.06208997       0.73475498       0.45541636       0.41812781
H        8.06226622       0.14276294      -3.60717349       0.12898470       0.23290081      -0.04478890       0.21231015       1.12644535      -0.70152749
H        6.86799111      -0.79942728      -2.72242406       0.00348728       0.10618818       0.00690681      -0.41855756      -0.01091597      -0.40205555
9
Properties=species:S:1:pos:R:3:momenta:R:3:forces:R:3 R1=H R2=H R3=CH3 R4=CH3 leaving_group=Cl nucleophile=Cl rxn=sn2 config=rcc label=H_H_CH3_CH3_Cl_Cl_sn2_rcc conformation=0 reactant_id=H_H_CH3_CH3_Cl_none_-_r product_id=H_H_CH3_CH3_none_Cl_sn2_pc mp2_author_energy=-29302.391748605172 mp2_my_energy=0 hash=59123 address=T id=71 energy=-17370.233735873255 pbc="F F F"
C        8.88997568      -2.04965732      -3.19959296       0.13170762       0.43309864      -0.49038696      -0.41493711       1.45196890      -0.95648573
C       10.06085870      -1.16657906      -2.99994472       0.89564920      -1.41031283       0.18054217       0.96450107      -0.51062766       1.29762909
H       10.05298864      -0.23131117      -3.54255659       0.47467346      -0.18850504       0.03304665      -0.27028518       0.17671037      -0.14229703
F        9.76963506      -2.37805069      -5.40248612      -0.42634363      -0.87500511      -0.88877252      -0.05268222      -0.04148680       0.09135696
Cl       7.88519445      -1.62789559      -0.51680288       1.03680892       1.23981116       0.57090143       0.07704404       0.01153844      -0.04546080
H        8.94211664      -2.93152464      -2.64404614       0.10810909       0.19427523      -0.12635559      -0.07012653      -1.17893207       0.62801274
H        7.92633900      -1.54928313      -3.20181007      -0.04533291      -0.06927594       0.26620770       0.26823590      -0.22898536       0.00611669
H       10.97800009      -1.71378866      -3.27058678       0.04325861       0.07220071      -0.26074398      -0.28112986       0.19229865      -0.14257784
H       10.12022239      -0.98647528      -1.90701285       0.08799047       0.13237537       0.04421974      -0.22062009       0.12751553      -0.73629409
9
Properties=species:S:1:pos:R:3:momenta:R:3:forces:R:3 R1=H R2=H R3=CH3 R4=CH3 leaving_group=Cl nucleophile=Cl rxn=sn2 config=rcc label=H_H_CH3_CH3_Cl_Cl_sn2_rcc conformation=0 reactant_id=H_H_CH3_CH3_Cl_none_-_r product_id=H_H_CH3_CH3_none_Cl_sn2_pc mp2_author_energy=-29302.391748605172 mp2_my_energy=0 hash=59123 address=T id=71 energy=-17370.464548229593 pbc="F F F"
C        9.55086110      -2.21230556      -3.31971233       0.23476303      -0.33635116      -0.15493860       1.29212653       0.09297449       1.10982597
C       10.14107142      -3.44088088      -2.66504873       0.16941029      -1.95923625       0.11068693      -0.37598854       0.14178247      -0.49427932
H       11.17526189      -3.58261849      -3.01142922      -0.12639169      -0.29517093       0.02392364      -0.15477456       0.46889634       0.02430816
F        9.41303302      -2.75760351      -5.60981549      -0.01374946       0.41275764      -0.10016050       0.11671838      -0.14948097      -0.02680567
Cl       9.34239563      -0.70892841      -0.92389968       1.95455663       1.59935762      -0.49455155      -0.08732373       0.18988403       0.53194194
H        9.44425378      -2.34360279      -4.41985738      -0.04444672      -0.11193158       0.15115890      -0.26009661      -0.43805846      -0.94945378
H       10.21875035      -1.39032654      -3.13659105       0.02352502       0.04344439      -0.45325112      -0.23696133       0.38139784      -0.18883768
H        9.60220548      -4.30872970      -3.02446524      -0.22867813      -0.00444369       0.29816746      -0.32488553      -0.43346921       0.35930381
H       10.10605257      -3.33431972      -1.57396515       0.09332170       0.23014053       0.01870386       0.03118538      -0.25392652      -0.36600343
9
Properties=species:S:1:pos:R:3:momenta:R:3:forces:R:3 R1=H R2=H R3=CH3 R4=CH3 leaving_group=Cl nucleophile=Cl rxn=sn2 config=rcc label=H_H_CH3_CH3_Cl_Cl_sn2_rcc conformation=0 reactant_id=H_H_CH3_CH3_Cl_none_-_r product_id=H_H_CH3_CH3_none_Cl_sn2_pc mp2_author_energy=-29302.391748605172 mp2_my_energy=0 hash=59123 address=T id=71 energy=-17370.433883449583 pbc="F F F"
C        9.80272057      -2.26855703      -3.43581138       1.38465270      -0.21237117       0.55003507       1.20629274      -1.20353414       0.17620366
C        9.15045392      -3.28766319      -2.53656916      -0.57174450       0.17994884      -0.35071981      -0.88366553       0.92969803       0.93266338
H        9.40422329      -4.31378411      -2.81230696      -0.12970812       0.03249288       0.24358140       0.12337380       0.19068330      -0.33908877
F        9.63052212      -3.41538022      -5.50438236      -0.36041899       0.48390410       0.66234390       0.11720609       0.23109538       0.47111927
Cl      10.58058199      -0.58549304      -1.30073678       1.11246934      -0.37546833      -2.06923504       0.02981532       0.37549581       0.50414737
H        9.83929306      -2.65686283      -4.47864002       0.12761133      -0.16439926       0.10557194      -0.86030992      -0.27892806      -0.92444072
H       10.84509614      -2.17860257      -3.17556110       0.11836453      -0.27465275       0.19885192      -0.14349896       0.27243084      -0.10308708
H        8.04431738      -3.14434268      -2.53850411      -0.00675963       0.02695216       0.16270783       0.62716561      -0.35223492      -0.12350757
H        9.47905669      -3.10258366      -1.49435124      -0.07942728      -0.02235296       0.03260687      -0.21637915      -0.16470623      -0.59400953
9
Properties=species:S:1:pos:R:3:momenta:R:3:forces:R:3 R1=H R2=H R3=CH3 R4=CH3 leaving_group=Cl nucleophile=Cl rxn=sn2 config=rcc label=H_H_CH3_CH3_Cl_Cl_sn2_rcc conformation=0 reactant_id=H_H_CH3_CH3_Cl_none_-_r product_id=H_H_CH3_CH3_none_Cl_sn2_pc mp2_author_energy=-29302.391748605172 mp2_my_energy=0 hash=59123 address=T id=71 energy=-17370.364981258615 pbc="F F F"
C       10.29609018      -2.69362596      -3.39604705       0.13789918       0.09243489       1.32884366      -1.26383936      -0.11910506      -1.75661863
C        9.02049329      -2.18185266      -2.81364095       0.71504782       0.18550515      -0.64252934       0.82756700       0.18927634       1.36917491
H        8.59953168      -2.95560073      -2.19538623      -0.08795515      -0.07652778      -0.16120593      -0.32305506      -0.67745260      -0.07484235
F        9.43912403      -4.13401668      -5.08854135      -0.66610317       0.00261308       0.66530712       0.20598001       0.53361374       0.54336938
Cl      11.62914951      -0.72602591      -1.73984156       1.21298953      -0.77360031      -1.66828132       0.12328884      -0.08299340      -0.02368172
H        9.98571457      -3.28234808      -4.37000440       0.23191379      -0.08171410      -0.06506512       0.46774119       0.07785249       1.02998683
H       10.91676817      -3.22224634      -2.69683340       0.04817827       0.09432763       0.23045832       0.09334110      -0.06074683       0.01106329