9
Properties=species:S:1:pos:R:3:momenta:R:3:forces:R:3 R1=H R2=H R3=CH3 R4=CH3 leaving_group=Cl nucleophile=Cl rxn=sn2 config=rcc label=H_H_CH3_CH3_Cl_Cl_sn2_rcc conformation=0 reactant_id=H_H_CH3_CH3_Cl_none_-_r product_id=H_H_CH3_CH3_none_Cl_sn2_pc mp2_author_energy=-29302.391748605172 mp2_my_energy=0 hash=59123 address=T id=71 energy=-17370.412368016237 pbc="F F F"
C        0.12542541       0.11270554      -0.00029240       0.24155147      -0.48286494       0.09303301      -0.09214561       1.11788396      -0.00082481
C        1.62503867       0.00847468       0.00156754      -0.47604362       0.08253679       0.35908364      -0.06338950      -0.85342640       0.00215309
H        1.99473018      -0.50605055       0.89354482      -0.12156327      -0.08831331       0.04512623       0.00320508       0.00300841       0.00517082
F        0.89788639       2.64149152      -0.00442372       0.20948211       0.54286602       0.92083754      -0.23271315      -0.10403772      -0.00076135
Cl      -0.69504884      -1.53494042       0.00509220      -0.49545746      -0.19811093       0.58234566       0.38207948      -0.16174994      -0.00050876
H       -0.22306082       0.64592326      -0.87549887       0.04154819      -0.01196035       0.18899328      -0.00302890      -0.00293595      -0.00472561
H       -0.22431889       0.65275656       0.87018381      -0.17920340       0.05835347       0.09624901      -0.00396382      -0.00350204       0.00469305
H        1.88822962       1.08069343      -0.00059746      -0.11149377       0.09057830      -0.10501789       0.00778691       0.00253743      -0.00033365
H        1.99700981      -0.51031959      -0.88698835      -0.05150990       0.14177872       0.03109934       0.00216950       0.00222225      -0.00486279
9
Properties=species:S:1:pos:R:3:momenta:R:3:forces:R:3 R1=H R2=H R3=CH3 R4=CH3 leaving_group=Cl nucleophile=Cl rxn=sn2 config=rcc label=H_H_CH3_CH3_Cl_Cl_sn2_rcc conformation=0 reactant_id=H_H_CH3_CH3_Cl_none_-_r product_id=H_H_CH3_CH3_none_Cl_sn2_pc mp2_author_energy=-29302.391748605172 mp2_my_energy=0 hash=59123 address=T id=71 energy=-17370.237914085894 pbc="F F F"
C       -0.19510091       0.17737268       1.02965945       0.13247596      -0.51041539       0.50877257      -0.60627678       0.62273238      -2.08762845
C        1.25024110      -0.18868476       1.00122583       0.23822432       0.69279938       0.71041807      -0.19932658       0.58413944      -0.61666238
H        1.49747848      -1.00892393       1.65111950       0.26328398       0.08714959       0.08289993      -0.00945943      -0.27016078       0.62160230
F        0.40531745       2.64013655       1.74881799      -0.38649861      -0.35192143       1.32148290       0.27070759      -0.18036767      -0.00356217
Cl      -1.13703042      -1.33328983       0.54700017      -1.67236422       0.52241590       0.77207613      -0.01489501       0.11596344       0.16370204
H       -0.44595284       1.03134874       0.33632080      -0.01826103      -0.02249425      -0.10337497       0.43476783      -1.30613636       0.60672105
H       -0.45009903       0.56342568       1.96881174      -0.01416006      -0.20092822      -0.02494401      -0.71848117       0.06287136       1.44990559
H        1.63070448       0.77416010       1.35080455      -0.05029615       0.00568251       0.14583555       0.64348208      -0.11537577      -0.27195660
H        1.53991275      -0.50972894      -0.00731226       0.03122704      -0.01107472       0.05070805       0.19948146       0.48633395       0.13787860
9
Properties=species:S:1:pos:R:3:momenta:R:3:forces:R:3 R1=H R2=H R3=CH3 R4=CH3 leaving_group=Cl nucleophile=Cl rxn=sn2 config=rcc label=H_H_CH3_CH3_Cl_Cl_sn2_rcc conformation=0 reactant_id=H_H_CH3_CH3_Cl_none_-_r product_id=H_H_CH3_CH3_none_Cl_sn2_pc mp2_author_energy=-29302.391748605172 mp2_my_energy=0 hash=59123 address=T id=71 energy=-17370.15729551052 pbc="F F F"
C       -0.86181042       0.31192948       2.24581600      -0.79980019       0.54491932       1.49290632      -0.22784286      -1.78875374       0.52002552
C        0.59197907      -0.00144285       2.17229313      -1.14658371       0.06954271       0.92756377       1.20907091       1.02041690       1.21463609
H        0.88947635      -0.91941533       2.71765846      -0.02650516       0.03545562       0.04420866      -0.34549209       0.41513489      -0.34326538
F        0.10263884       2.31676645       3.67969217      -0.02723502      -0.63349074       1.77175628      -0.30987193      -0.28473364      -0.23927166
Cl      -1.54761986      -1.12881270       1.13878253      -0.41485722      -0.30340992       0.68430149      -0.36676109       0.85994099       0.75198767
H       -1.14685633       1.22502629       1.79068129      -0.03919126       0.30100284      -0.03258418      -0.14131318       0.72542478      -0.55546145
H       -1.30050500       0.29283265       3.28695509       0.12789525       0.05095891      -0.10669144       0.60473687      -0.30013771      -1.32335382
H        0.95070301       0.90352820       2.71043470       0.21183255       0.09250039      -0.03266786       0.14955531      -0.37132140       0.26485103
H        1.07790984       0.03034223       1.19509387       0.07583488       0.13416997       0.03421808      -0.57208194      -0.27597106      -0.29014801
9
Properties=species:S:1:pos:R:3:momenta:R:3:forces:R:3 R1=H R2=H R3=CH3 R4=CH3 leaving_group=Cl nucleophile=Cl rxn=sn2 config=rcc label=H_H_CH3_CH3_Cl_Cl_sn2_rcc conformation=0 reactant_id=H_H_CH3_CH3_Cl_none_-_r product_id=H_H_CH3_CH3_none_Cl_sn2_pc mp2_author_energy=-29302.391748605172 mp2_my_energy=0 hash=59123 address=T id=71 energy=-17370.26263967901 pbc="F F F"
C       -1.17893880       0.28411403       3.34535906       0.26264077       0.67623559       1.16674391      -1.93116605      -1.77009354       1.45540654
C        0.24861191       0.01835924       3.35633115       0.50500474      -0.18722921       0.09082741       1.79168524      -1.02277407       0.48950678
H        0.55142187      -1.02872610       3.49593914      -0.04082251      -0.15289858      -0.04958471      -0.44812235      -0.05666144      -0.27823352
F       -0.69338773       1.70174831       5.43272609      -1.43255558      -0.44124160       1.21199136       0.23967931       0.44971976       0.64197753
Cl      -2.01267092      -0.61754545       1.98304884      -0.96718946       0.76208174       1.22068027       0.08468982      -0.49595680      -0.93295881
H       -1.37597683       1.29872917       3.20435339      -0.01169585      -0.19198543       0.00686825      -0.40923874       1.47882847       0.03108282
H       -1.67469511      -0.09421294       4.26146565      -0.06519646       0.02610468       0.19961567       0.45906916       0.69335551      -0.60561087
H        0.60979197       0.53343462       4.25660964       0.15865881      -0.23214819      -0.00053577      -0.28086704       0.41430086      -0.30925677
H        0.70757754       0.37821261       2.45598093      -0.05608491      -0.02326028       0.01816900       0.49427064       0.30928124      -0.49191370
9
Properties=species:S:1:pos:R:3:momenta:R:3:forces:R:3 R1=H R2=H R3=CH3 R4=CH3 leaving_group=Cl nucleophile=Cl rxn=sn2 config=rcc label=H_H_CH3_CH3_Cl_Cl_sn2_rcc conformation=0 reactant_id=H_H_CH3_CH3_Cl_none_-_r product_id=H_H_CH3_CH3_none_Cl_sn2_pc mp2_author_energy=-29302.391748605172 mp2_my_energy=0 hash=59123 address=T id=71 energy=-17370.25860927053 pbc="F F F"
C       -1.80286335       0.38745552       4.64142442      -0.41506320       0.43050949       0.21911506       1.22689708      -0.34618898      -1.68655381
C       -0.31081437       0.05892339       4.58792277       0.19863046       0.23194852       1.92723554       0.49768143       1.51476751      -0.66184542
H       -0.09904666      -0.96486750       4.27674736      -0.07688273      -0.11819052       0.03556016      -0.18835215      -0.09285727       0.41076934
F       -1.31213810       0.99244384       7.04470809       0.18475642      -0.67240919       1.25211650       0.02257414       0.10516012       0.24164471
Cl      -2.34823351      -0.12837597       2.79357398      -1.03684902       0.67782379       0.29137913      -0.07533378       0.22677500       0.78768738
H       -2.02162212       1.44896599       4.69902159      -0.13389806      -0.27329745       0.00280019      -0.04095029      -0.28182807       0.15055542
H       -2.34663351      -0.22932426       5.32839834      -0.24307102      -0.19632772       0.09797889      -0.26189267      -0.03131861       0.12274664
H        0.06505835       0.37065548       5.56495676       0.00800797       0.12590141       0.25346814      -0.24345282      -0.59376468       0.30134533
H        0.26450659       0.70938281       3.86680915      -0.22731613       0.04321193       0.00670947      -0.93717094      -0.50074503       0.33365042
9
Properties=species:S:1:pos:R:3:momenta:R:3:forces:R:3 R1=H R2=H R3=CH3 R4=CH3 leaving_group=Cl nucleophile=Cl rxn=sn2 config=rcc label=H_H_CH3_CH3_Cl_Cl_sn2_rcc conformation=0 reactant_id=H_H_CH3_CH3_Cl_none_-_r product_id=H_H_CH3_CH3_none_Cl_sn2_pc mp2_author_energy=-29302.391748605172 mp2_my_energy=0 hash=59123 address=T id=71 energy=-17370.19517134053 pbc="F F F"
C       -2.31337599       0.29577777       5.95452988      -0.10349863       0.02386165       0.61860718       0.87715239       2.36987507      -0.22333494
C       -0.81952270       0.14142004       5.93993778       0.24048252       0.01784160      -0.34885888      -0.54167063      -0.60414653      -0.35904761
H       -0.56790789      -0.80053471       5.43639944      -0.07113287       0.01772210       0.05632116       0.20760138       0.32832048      -0.30637814
F       -2.22620448       0.11264562       8.44130630      -1.08881861      -0.27243750       0.39435375       0.11507243      -0.01141449      -0.67077686
Cl      -2.72568124       0.54306586       3.98864980      -0.19151477       0.64458168       2.35028645       0.04110937      -0.11971369       0.59644233
H       -2.59951936       1.25578043       6.41821155      -0.04976146      -0.06807679      -0.08661537      -0.20360007      -0.92198058      -0.27807289
H       -2.86817238      -0.53868594       6.22856867      -0.16494786      -0.13763713      -0.00966905      -0.92798388      -1.10947421       0.54209406
H       -0.58705697      -0.01023467       6.99680792       0.23071611      -0.16948146       0.15028603       0.12582734       0.69015667       0.07227263
H       -0.41252012       1.02200157       5.40441482      -0.12156518       0.13247450      -0.02761574       0.30649166      -0.62162272       0.62680143
9
Properties=species:S:1:pos:R:3:momenta:R:3:forces:R:3 R1=H R2=H R3=CH3 R4=CH3 leaving_group=Cl nucleophile=Cl rxn=sn2 config=rcc label=H_H_CH3_CH3_Cl_Cl_sn2_rcc conformation=0 reactant_id=H_H_CH3_CH3_Cl_none_-_r product_id=H_H_CH3_CH3_none_Cl_sn2_pc mp2_author_energy=-29302.391748605172 mp2_my_energy=0 hash=59123 address=T id=71 energy=-17370.103486982924 pbc="F F F"
C       -2.84757137       0.26761108       7.15227771      -0.66037400      -0.22643679       0.54966664       1.19366488       2.00962896      -0.20749576
C       -1.33017805       0.18538038       7.33577353      -0.78984179      -0.56842924       1.43835043      -0.61443035       0.46146803      -0.67980496
H       -0.85092591      -0.38194633       6.48673982       0.12135175       0.12155727      -0.13923943      -0.47734268       0.26279199       1.21419414
F       -3.03104893      -0.70595997       9.37124618       0.21994911      -0.44213805       0.67601622       0.08717427       0.03871345      -0.04441355
Cl      -3.06323714       1.14880578       5.24008142      -0.42615886       1.13983517       1.37568413       0.22438603      -0.28123289       0.67695112
H       -3.38879214       0.97921271       7.78914180      -0.13755512       0.20712320      -0.07523446       0.42227560      -0.58861501      -0.40782345
H       -3.31452201      -0.64565585       6.96883933      -0.10949112      -0.10601777      -0.19698458      -0.74521580      -1.16568261      -0.05228137
H       -1.32726738      -0.21707521       8.35339841      -0.07063914       0.07411384       0.19916236       0.24326603      -0.77022887      -0.17324220
H       -0.84204853       1.16559443       7.40517996       0.14703579       0.04441783       0.17456743      -0.33377798       0.03315695      -0.32608398
9
Properties=species:S:1:pos:R:3:momenta:R:3:forces:R:3 R1=H R2=H R3=CH3 R4=CH3 leaving_group=Cl nucleophile=Cl rxn=sn2 config=rcc label=H_H_CH3_CH3_Cl_Cl_sn2_rcc conformation=0 reactant_id=H_H_CH3_CH3_Cl_none_-_r product_id=H_H_CH3_CH3_none_Cl_sn2_pc mp2_author_energy=-29302.391748605172 mp2_my_energy=0 hash=59123 address=T id=71 energy=-17370.011508046136 pbc="F F F"
C       -3.33351019       0.22008330       8.06026938      -0.18657002      -0.04772481      -0.08020379      -0.34527295       1.25267517       1.27487623
C       -1.90559098       0.24752706       8.44789942       0.18508105       0.58916835       0.32903800       0.41681072      -0.61682490      -0.66825277
H       -1.25881005       0.06699915       7.59053533      -0.02064111       0.03448396      -0.05489024       0.03317878      -0.06564157      -0.32735880
F       -3.68482802      -1.23414105       9.93723895      -1.25126156      -0.10812127       0.10063872       0.13810379       0.46410562      -0.78293299
Cl      -3.29365217       1.57525312       6.50885010      -0.47834565      -0.22423803       3.11874334      -0.15795911       0.17568191      -0.48525841
H       -4.01248459       0.75356850       8.70888270       0.06185544       0.08221080       0.28557531       0.04720376      -0.38331500       0.07250317
H       -3.74643016      -0.62961934       7.61412145       0.17246818      -0.04846672       0.07893352      -0.33529886      -1.10056103      -0.49574689
H       -1.84025452      -0.64241086       9.08761869       0.09985004      -0.10636141      -0.08247294       0.14432799       0.86406548       0.70617656
H       -1.65036243       1.26458971       8.77087857      -0.13188038       0.05071683      -0.06003775       0.05890587      -0.59018567       0.70599390
9
Properties=species:S:1:pos:R:3:momenta:R:3:forces:R:3 R1=H R2=H R3=CH3 R4=CH3 leaving_group=Cl nucleophile=Cl rxn=sn2 config=rcc label=H_H_CH3_CH3_Cl_Cl_sn2_rcc conformation=0 reactant_id=H_H_CH3_CH3_Cl_none_-_r product_id=H_H_CH3_CH3_none_Cl_sn2_pc mp2_author_energy=-29302.391748605172 mp2_my_energy=0 hash=59123 address=T id=71 energy=-17369.954239893188 pbc="F F F"
C       -3.74771824       0.27373468       9.03836688      -0.65528959       0.59265186       0.69625498      -0.37992750      -1.09851677       0.46011116
C       -2.39982791       0.21377146       9.68849825      -0.66571202      -0.98800643       0.84112164      -0.50969984      -0.28627332       1.49618908
H       -1.59261453       0.17030373       8.92495586      -0.05346660       0.06045132       0.07956548      -0.31920157       0.41206909       0.73755504
F       -4.33009694      -1.61265533      10.30533813       0.13287837      -0.57950598       0.42359870       0.12202131       0.37486933      -0.24541946
Cl      -3.61420552       1.93218559       7.84733876      -0.57022177       0.95985810       1.66930819       0.03116375       0.33877074      -0.27484081
H       -4.59943868       0.46887893       9.66251774      -0.25184837       0.05930619       0.16622247       0.11894058       0.19136177       0.19418206
H       -3.99568274      -0.52781838       8.36980875       0.15754620       0.34277800      -0.05046728       0.15280909      -0.03951204      -0.30027001
H       -2.49037547      -0.75923007      10.27752793      -0.14154679      -0.18815189       0.36791314       0.11729191       1.13632416      -0.80212715
H       -2.37908374       1.07114971      10.45058296       0.12010291       0.01638051       0.32894171       0.66660227      -1.02909297      -1.26537991
9
Properties=species:S:1:pos:R:3:momenta:R:3:forces:R:3 R1=H R2=H R3=CH3 R4=CH3 leaving_group=Cl nucleophile=Cl rxn=sn2 config=rcc label=H_H_CH3_CH3_Cl_Cl_sn2_rcc conformation=0 reactant_id=H_H_CH3_CH3_Cl_none_-_r product_id=H_H_CH3_CH3_none_Cl_sn2_pc mp2_author_energy=-29302.391748605172 mp2_my_energy=0 hash=59123 address=T id=71 energy=-17370.032787255514 pbc="F F F"
C       -4.21271721      -0.00015507      10.01079892      -0.30338024      -0.42888938       0.76423869       0.78003577      -0.85448894      -1.60596975
C       -3.05859392       0.06999181      10.94017896      -0.59854951       0.04924219       0.48689335       0.53953038       1.24248192       0.18370510
H       -2.16528824      -0.32852417      10.47396475       0.27967112       0.12360209      -0.12843595       0.16064358      -0.25018582      -0.22183934
F       -4.88067004      -2.03730791      10.79635151      -0.39999645      -0.35506169       0.14829870       0.32966526       0.61034019      -0.16277558
Cl      -3.89057789       2.43999508       9.07613521      -0.15175456       0.73313782       1.50645987       0.08529323      -0.00432497       0.06079343
H       -5.10487219       0.49840233      10.19707715       0.00882879       0.00440332      -0.12619221      -1.12847879       0.61057322       0.78733596
H       -4.03269400      -0.08176239       8.92596317      -0.12923985      -0.01224194      -0.02015755       0.12179248      -0.19699300       0.99454983
H       -3.25886452      -0.52919224      11.80845572      -0.01843873       0.00992663       0.26093601      -0.30719262      -0.38126375       0.39899130
H       -2.79543612       1.10567839      11.27250599       0.09834396       0.04963286      -0.04253007      -0.58128930      -0.77613884      -0.43479095
9
Properties=species:S:1:pos:R:3:momenta:R:3:forces:R:3 R1=H R2=H R3=CH3 R4=CH3 leaving_group=Cl nucleophile=Cl rxn=sn2 config=rcc label=H_H_CH3_CH3_Cl_Cl_sn2_rcc conformation=0 reactant_id=H_H_CH3_CH3_Cl_none_-_r product_id=H_H_CH3_CH3_none_Cl_sn2_pc mp2_author_energy=-29302.391748605172 mp2_my_energy=0 hash=59123 address=T id=71 energy=-17370.002550075646 pbc="F F F"
C       -4.67652898       0.02366968      10.95300883      -0.41377885      -0.24905323       0.15611595      -1.52888722       0.58549490       0.52413717
C       -3.84581323      -0.06741240      12.18414287      -0.15613372      -0.74231044       0.66441052       0.10224484       3.78178352      -1.25202032
H       -2.80731210      -0.12859133      11.91320980      -0.13405329      -0.07519339      -0.01651754       0.49132756      -0.43243465       0.06593058
F       -5.33816824      -2.07410868      11.14831684       0.17517360       0.76376237       0.55976874       0.00870143      -0.17075360       0.07365642
Cl      -4.20977533       2.66938852      10.54897076      -0.64176364       0.57524274       2.23925291      -0.02351603      -0.33759799       0.06377816
H       -5.73551893       0.35689509      10.99749406       0.00460540       0.15009124      -0.02804035       1.10118067      -0.18291630       0.19923181
H       -4.27271375      -0.08094696       9.98982880      -0.11371945      -0.08083603       0.18395771       0.55857210       0.05082280      -0.79723994
H       -4.23963579      -0.86841979      12.66328673      -0.25539672       0.14565175       0.17379718      -0.76379396      -2.57268723       1.52948852
H       -3.97238183       0.86248781      12.78809768      -0.19378275      -0.24002108       0.12350223       0.05417060      -0.72171145      -0.40696240
9
Properties=species:S:1:pos:R:3:momenta:R:3:forces:R:3 R1=H R2=H R3=CH3 R4=CH3 leaving_group=Cl nucleophile=Cl rxn=sn2 config=rcc label=H_H_CH3_CH3_Cl_Cl_sn2_rcc conformation=0 reactant_id=H_H_CH3_CH3_Cl_none_-_r product_id=H_H_CH3_CH3_none_Cl_sn2_pc mp2_author_energy=-29302.391748605172 mp2_my_energy=0 hash=59123 address=T id=71 energy=-17370.067432102423 pbc="F F F"
C       -5.13699467       0.15156801      11.90600158      -0.49174043      -0.48032567       0.47061552       2.39937659       0.40730733      -0.72893124
C       -4.80381338      -0.18958687      13.31591528      -0.57968424       0.36086443       0.66010060      -2.47635911       0.10479786       0.32413843
H       -3.79678508      -0.45972766      13.41020975      -0.31355301       0.05883667      -0.06696872       1.55453500      -0.30818875       0.24963155
F       -5.73595927      -1.93107867      11.59976205      -0.39801961      -0.67341324       0.36576479      -0.25791685      -1.00420749      -0.22328652
Cl      -4.57841998       2.76698131      12.18540187      -0.18758670       1.62525925       3.30780218      -0.02804937      -0.17560008       0.01472447
H       -6.12416023       0.38603033      11.63589426       0.01433098      -0.22799462      -0.02772554      -0.81363174       0.37876024      -0.19073818
H       -4.29518864       0.29919912      11.16521666      -0.08894988      -0.06322336      -0.02152949      -1.31905333      -0.09903625       1.07470904
H       -5.43703971      -1.05086599      13.64468252      -0.14258340       0.16278671       0.26201022       0.53681608       0.50490799      -0.64013148
H       -5.08047450       0.64622034      13.95421723       0.09641166      -0.46359238      -0.04326122       0.40428273       0.19125914       0.11988393
9
Properties=species:S:1:pos:R:3:momenta:R:3:forces:R:3 R1=H R2=H R3=CH3 R4=CH3 leaving_group=Cl nucleophile=Cl rxn=sn2 config=rcc label=H_H_CH3_CH3_Cl_Cl_sn2_rcc conformation=0 reactant_id=H_H_CH3_CH3_Cl_none_-_r product_id=H_H_CH3_CH3_none_Cl_sn2_pc mp2_author_energy=-29302.391748605172 mp2_my_energy=0 hash=59123 address=T id=71 energy=-17370.089876810995 pbc="F F F"
C       -5.56371684       0.22890333      13.05218038      -0.59936965       0.05723026       1.41444018      -0.95535942      -0.08705264       0.01124654
C       -5.86605226      -0.23106536      14.42320096      -1.03220092      -0.74629339       0.28073531       0.87847475      -1.50639793      -0.59910666
H       -5.05291615      -0.93947434      14.70909547      -0.00076374      -0.12880450       0.08440730      -0.76795564       0.18736799       0.04018050
F       -6.11692731      -1.68556419      12.06093965      -0.05157727       0.14183683       0.57513797       0.09262658       0.35612776       0.19241037
Cl      -4.99553369       2.79543451      13.91619251      -0.32117300       0.75101755       2.20587819      -0.08382905      -0.51918319      -0.21141723
H       -6.29929846       0.73257545      12.47953989      -0.01870041       0.48262561      -0.27637368      -0.53618894       0.36192738      -0.20757379
H       -4.58767541       0.33599193      12.70819755      -0.05042177      -0.08591811      -0.12537824       1.38389709       0.19685867      -0.20613559
H       -6.84222357      -0.71163864      14.42580149       0.16972988      -0.02886788      -0.10583259       0.06045254      -0.19927460       0.11578170
H       -5.84678073       0.56947195      15.10382820       0.09239894      -0.18358554       0.19850462      -0.07211790       1.20962655       0.86461416
9
Properties=species:S:1:pos:R:3:momenta:R:3:forces:R:3 R1=H R2=H R3=CH3 R4=CH3 leaving_group=Cl nucleophile=Cl rxn=sn2 config=rcc label=H_H_CH3_CH3_Cl_Cl_sn2_rcc conformation=0 reactant_id=H_H_CH3_CH3_Cl_none_-_r product_id=H_H_CH3_CH3_none_Cl_sn2_pc mp2_author_energy=-29302.391748605172 mp2_my_energy=0 hash=59123 address=T id=71 energy=-17370.04460774215 pbc="F F F"
C       -6.02356730       0.45299567      14.18915261      -0.63647172      -0.09574160       0.73445218      -0.21293966       1.47358075      -1.18169469
C       -6.76712645      -0.15776788      15.31475278       0.16673852       0.04315037       0.36250109       0.13249258      -0.63082382       0.40788900
H       -7.61333489       0.43153636      15.64857090      -0.12941841       0.08258257       0.00265858       0.04658268       0.45798311       0.11937056
F       -6.53596295      -1.13866644      12.73737358      -0.09174002       0.57560098       0.27396852      -0.04460303      -0.04572631       0.20049567
Cl      -5.44136883       2.56198312      15.62865513      -0.74473805      -0.73145957       2.08514758       0.03978450       0.09625050       0.07046319
H       -6.56077020       1.24689668      13.52397282       0.23304313       0.04631548      -0.13118716       1.22458776      -1.56679141       1.43535302
H       -4.92367486       0.38002994      14.21122668      -0.31100792      -0.01131520      -0.06228543      -0.83894929       0.26361109      -0.20715308
H       -6.11188768      -0.40708791      16.18102382      -0.16928252       0.16969979       0.18243652      -0.40443698       0.33341036      -0.63862426
H       -7.18708596      -1.07358163      14.92064158       0.10864277       0.14638144       0.24579541       0.05748143      -0.38149427      -0.20609941
9
Properties=species:S:1:pos:R:3:momenta:R:3:forces:R:3 R1=H R2=H R3=CH3 R4=CH3 leaving_group=Cl nucleophile=Cl rxn=sn2 config=rcc label=H_H_CH3_CH3_Cl_Cl_sn2_rcc conformation=0 reactant_id=H_H_CH3_CH3_Cl_none_-_r product_id=H_H_CH3_CH3_none_Cl_sn2_pc mp2_author_energy=-29302.391748605172 mp2_my_energy=0 hash=59123 address=T id=71 energy=-17370.095631955726 pbc="F F F"
C       -6.32924116       0.57621779      15.06648888       0.02077083       0.57164569       0.40553869       1.43741994      -2.11173718       1.25217388
C       -7.42082433      -0.09913488      15.85070307      -0.42280318       0.46006149       0.21143759       0.37387787       0.58749483       0.04393822
H       -8.15457917       0.65944224      15.98761930       0.22406071      -0.11196402      -0.01023048      -0.99682541       0.46029856      -0.01919145
F       -6.82191614      -0.73517022      13.35337164      -0.44425598       0.37715046       0.85326305       0.02569866      -0.07936473      -0.08355621
Cl      -5.82148683       2.39865700      16.89697262      -0.98406606      -0.82279173       1.46927817      -0.06886508       0.05825035       0.20263174
H       -6.48828679       1.48113425      14.58465544       0.12123815      -0.16322297       0.15352847      -0.38596459       1.19965392      -0.62064999
H       -5.30627257       0.35578964      15.41044067       0.28663078       0.02692329       0.05558727      -0.71291725       0.24379884      -0.59877584
H       -7.12857804      -0.35878099      16.87868782       0.00237990       0.00197451      -0.13420452       0.21016246      -0.34421872      -0.49368242
H       -7.80162096      -0.91356861      15.22390913      -0.10297602      -0.15393523       0.04358017       0.11741341      -0.01417587       0.31711208
9
Properties=species:S:1:pos:R:3:momenta:R:3:forces:R:3 R1=H R2=H R3=CH3 R4=CH3 leaving_group=Cl nucleophile=Cl rxn=sn2 config=rcc label=H_H_CH3_CH3_Cl_Cl_sn2_rcc conformation=0 reactant_id=H_H_CH3_CH3_Cl_none_-_r product_id=H_H_CH3_CH3_none_Cl_sn2_pc mp2_author_energy=-29302.391748605172 mp2_my_energy=0 hash=59123 address=T id=71 energy=-17370.002182923545 pbc="F F F"
C       -6.85697044       0.63538843      16.24781714       0.09490770      -0.34236360       1.16395176      -1.27219805       0.21384673      -2.02962642
C       -8.21905012       0.23343289      16.62934063       0.06026617       0.57795540       0.14954165      -2.21976688       1.38935667      -0.64283297
H       -8.94935761       0.14956410      15.75189190       0.04224115      -0.04501863      -0.17716964       1.31582147       0.10089373       0.96399798
F       -7.08564632      -0.07979454      14.13856019      -1.01661402       0.62956940       1.11900125       0.03258642       0.20071958       0.81533251
Cl      -6.30994774       2.05371030      18.46055727      -1.43080752      -0.54065458       2.60395991      -0.09178951       0.11520114       0.17942321
H       -6.76822501       1.62113830      15.83358796       0.00764182       0.18142816       0.03428149       0.34275170       0.11598418       0.01144507
H       -6.12235547       0.23691469      16.85418247      -0.06719343      -0.19215565       0.06682287       1.57017139      -0.46888521       0.65930449
H       -8.64386254       0.97249348      17.33537267       0.13259994      -0.23061765       0.07840030       0.31292482      -0.13854725      -0.44600353
H       -8.21626909      -0.66921439      17.16815278       0.08154024       0.26163339      -0.12249475       0.00949862      -1.52856959       0.48895965
9
Properties=species:S:1:pos:R:3:momenta:R:3:forces:R:3 R1=H R2=H R3=CH3 R4=CH3 leaving_group=Cl nucleophile=Cl rxn=sn2 config=rcc label=H_H_CH3_CH3_Cl_Cl_sn2_rcc conformation=0 reactant_id=H_H_CH3_CH3_Cl_none_-_r product_id=H_H_CH3_CH3_none_Cl_sn2_pc mp2_author_energy=-29302.391748605172 mp2_my_energy=0 hash=59123 address=T id=71 energy=-17370.078601095218 pbc="F F F"
C       -7.46111430       1.02530361      17.72225876       0.40352469      -0.40995874       0.87049684      -0.65314046      -1.56624130       0.17155710
C       -8.99123814       0.97840908      17.75770806       0.71874463       0.46162911       1.16854261       1.47353203      -0.25937850      -0.55054340
H       -9.34679472       1.96250751      17.40333375      -0.03070357      -0.22326291      -0.06406685      -0.23596153      -0.53190650       0.32261479
F       -7.48683473       0.64706526      15.52355723      -1.17193291       0.97649936       0.36541097      -0.09250417       0.03149136       0.55432438
Cl      -7.14234412       1.43489420      20.42293235      -2.00911004      -0.67840821       3.11532759      -0.14529212      -0.09882415      -0.30441143
H       -7.06799254       1.98209033      17.95308029      -0.16294287      -0.15736090      -0.15627585       0.70505968       0.27551753       0.09162510
H       -6.93714916       0.06879594      18.02834569      -0.02049831       0.08335095       0.21616592      -0.60056588       1.53859057      -0.37340778