9
Properties=species:S:1:pos:R:3:momenta:R:3:forces:R:3 R1=H R2=H R3=CH3 R4=CH3 leaving_group=Cl nucleophile=Cl rxn=sn2 config=rcc label=H_H_CH3_CH3_Cl_Cl_sn2_rcc conformation=0 reactant_id=H_H_CH3_CH3_Cl_none_-_r product_id=H_H_CH3_CH3_none_Cl_sn2_pc mp2_author_energy=-29302.391748605172 mp2_my_energy=0 hash=59123 address=T id=71 energy=-17370.412368016237 pbc="F F F"
C        0.12542541       0.11270554      -0.00029240       0.07543400      -0.16077271      -1.22381816      -0.09214561       1.11788396      -0.00082481
C        1.62503867       0.00847468       0.00156754      -0.39737066       0.37523669       0.58297938      -0.06338950      -0.85342640       0.00215309
H        1.99473018      -0.50605055       0.89354482       0.06405544      -0.20782837       0.07300810       0.00320508       0.00300841       0.00517082
F        0.89788639       2.64149152      -0.00442372       0.51421649      -1.07061889      -1.29268230      -0.23271315      -0.10403772      -0.00076135
Cl      -0.69504884      -1.53494042       0.00509220      -0.10502060       0.96881166      -1.71007218       0.38207948      -0.16174994      -0.00050876
H       -0.22306082       0.64592326      -0.87549887      -0.14754659      -0.06928708       0.08760920      -0.00302890      -0.00293595      -0.00472561
H       -0.22431889       0.65275656       0.87018381      -0.06749515       0.10147185       0.00657822      -0.00396382      -0.00350204       0.00469305
H        1.88822962       1.08069343      -0.00059746       0.19370393      -0.14965435      -0.05351892       0.00778691       0.00253743      -0.00033365
H        1.99700981      -0.51031959      -0.88698835      -0.06949260      -0.17016738       0.20191253       0.00216950       0.00222225      -0.00486279
9
Properties=species:S:1:pos:R:3:momenta:R:3:forces:R:3 R1=H R2=H R3=CH3 R4=CH3 leaving_group=Cl nucleophile=Cl rxn=sn2 config=rcc label=H_H_CH3_CH3_Cl_Cl_sn2_rcc conformation=0 reactant_id=H_H_CH3_CH3_Cl_none_-_r product_id=H_H_CH3_CH3_none_Cl_sn2_pc mp2_author_energy=-29302.391748605172 mp2_my_energy=0 hash=59123 address=T id=71 energy=-17370.204591241003 pbc="F F F"
C        0.35590994      -0.04679582      -1.31807655      -0.04807097      -0.70369997      -0.50136403       0.75152892      -2.00868866       0.00193102
C        0.56474239       0.23764658       0.13525545      -0.13097286       0.86544434      -0.07709417      -0.12964169      -0.23385896       1.45948630
H       -0.28558999       0.72456328       0.59540670      -0.03793105       0.03058526      -0.18612310      -0.45206576       0.43507079      -0.19601888
F        2.24178546       1.72261030      -1.76756277       0.96278749      -0.80871627      -0.55860144       0.27551862       0.23677994       0.01148009
Cl      -1.01796929      -1.39514916      -1.44590557      -0.70436721       0.16494696      -2.12314208       1.10637736       0.95739812       0.25147501
H        1.31386196      -0.35381262      -1.78931315       0.01453239      -0.04445838       0.04791351      -0.96388149      -0.20287625       0.31744776
H        0.03146350       0.77190749      -1.89013637      -0.00334871      -0.19838062      -0.14549016      -0.59182443       1.03257537      -0.40711437
H        1.43925757       0.89193155       0.27184343       0.01733298       0.13907129      -0.21711033      -0.26632040      -0.25552661      -0.60568980
H        0.67317922      -0.64630207       0.79717766      -0.00230225       0.12698421       0.03818907       0.27030888       0.03912626      -0.83299713
9
Properties=species:S:1:pos:R:3:momenta:R:3:forces:R:3 R1=H R2=H R3=CH3 R4=CH3 leaving_group=Cl nucleophile=Cl rxn=sn2 config=rcc label=H_H_CH3_CH3_Cl_Cl_sn2_rcc conformation=0 reactant_id=H_H_CH3_CH3_Cl_none_-_r product_id=H_H_CH3_CH3_none_Cl_sn2_pc mp2_author_energy=-29302.391748605172 mp2_my_energy=0 hash=59123 address=T id=71 energy=-17370.28624771193 pbc="F F F"
C        0.44939672      -0.49220582      -2.40783809       0.60799360       0.08183673      -0.35653226       0.69465777       1.22120259      -1.18577243
C        0.22752097       1.01154588      -2.58022811       0.30768997       0.52371164      -1.34003024       0.94169860      -0.61046843       0.31577082
H       -0.33682246       1.30414384      -3.46694202       0.05220864      -0.12686898      -0.17203856      -0.17067105      -0.39141120       0.09424105
F        2.98102214       0.26552783      -2.11969508       0.06724256      -0.70630464      -0.05701291      -1.00647417      -0.32215618      -0.13514759
Cl      -1.26148928      -1.08936334      -2.59465551      -1.11750748      -0.06614815      -1.33472012      -0.38368182      -0.76420275      -0.10170039
H        0.80314855      -0.82401442      -1.45701488       0.17062171       0.03977241       0.21742956       0.22377800       0.29419088       0.57022183
H        1.12381476      -0.90247524      -3.16201253      -0.15105154       0.04377419      -0.01985093      -0.37205794       0.03886016       0.04934249
H        1.22415082       1.42126455      -2.63653380       0.19078138      -0.22597319      -0.07483167       0.58255761       0.08571306       0.09299632
H       -0.23876264       1.36301315      -1.67821164      -0.07019763       0.07049913      -0.04168827      -0.50980699       0.44827187       0.30004791
9
Properties=species:S:1:pos:R:3:momenta:R:3:forces:R:3 R1=H R2=H R3=CH3 R4=CH3 leaving_group=Cl nucleophile=Cl rxn=sn2 config=rcc label=H_H_CH3_CH3_Cl_Cl_sn2_rcc conformation=0 reactant_id=H_H_CH3_CH3_Cl_none_-_r product_id=H_H_CH3_CH3_none_Cl_sn2_pc mp2_author_energy=-29302.391748605172 mp2_my_energy=0 hash=59123 address=T id=71 energy=-17370.274046038987 pbc="F F F"
C        0.37463359      -0.40640413      -3.37721601      -0.47461722       0.71046667      -0.68173625      -0.96891464      -1.30105859      -0.40496212
C        1.05200069      -0.30423479      -4.70388443      -0.61727794      -1.37045854      -0.28532331       0.81334456      -0.96196285      -0.63267077
H        0.89423304      -1.24763763      -5.29984235      -0.16083599      -0.23831892       0.16519232       0.50349758       0.66052793       0.65110372
F        2.82149086      -0.37559280      -2.44072611       0.02573831      -0.47884697      -0.41149238       0.88070375       0.03777404       0.23552331
Cl      -1.44991867      -0.50834388      -3.69467811       1.41999950       1.11763443      -2.52447601      -0.20502927      -0.34993860      -0.07366660
H        0.47041989       0.49729361      -2.86326420       0.08392270       0.00976286       0.11362745       0.40760097       1.10443101       1.08755144
H        0.76172781      -1.25528110      -2.76439452       0.06551010      -0.05481791      -0.17212367      -0.54194456       0.91175610      -0.64417688
H        2.12281698      -0.14193419      -4.33758073      -0.05312074       0.08662567       0.08091740      -0.98810553      -0.33448166      -0.64184556
H        0.65883957       0.48455500      -5.35624984      -0.22277614      -0.20319935       0.05406551       0.09884713       0.23295263       0.42314346
9
Properties=species:S:1:pos:R:3:momenta:R:3:forces:R:3 R1=H R2=H R3=CH3 R4=CH3 leaving_group=Cl nucleophile=Cl rxn=sn2 config=rcc label=H_H_CH3_CH3_Cl_Cl_sn2_rcc conformation=0 reactant_id=H_H_CH3_CH3_Cl_none_-_r product_id=H_H_CH3_CH3_none_Cl_sn2_pc mp2_author_energy=-29302.391748605172 mp2_my_energy=0 hash=59123 address=T id=71 energy=-17370.304347515663 pbc="F F F"
C        0.41994410      -0.44784286      -4.38168285       0.11312161      -0.06602300      -0.57819717       0.03023252       0.60300635       0.22446758
C        0.66499400      -1.87516277      -4.75939296      -0.55415763      -0.19607588      -0.54200275       0.27296841       1.13489401       0.25993466
H        0.05542623      -2.54509371      -4.19822047      -0.28115407       0.13544078       0.05116988      -0.80457443      -0.73507610       0.00053330
F        2.79191444      -0.79433815      -3.24196512       0.64936759      -0.09475334      -0.05161849      -0.25549288       0.09059629      -0.08552420
Cl      -1.25045511       0.13562067      -5.14951905       0.34567271       0.22768977      -1.46587740       0.59881391      -0.47891605       0.47030523
H        1.15781347       0.18724807      -4.82768114      -0.11488898      -0.06549026      -0.07054867       0.25266930       0.31105881      -0.25318867
H        0.44673474      -0.22601004      -3.31118475       0.02876548       0.17560327       0.06743624      -0.33248524      -0.29224226      -0.32784526
H        1.68305732      -1.94801973      -4.37864470      -0.16826634      -0.23371902       0.10527884       0.53840746      -0.16026161       0.14826268
H        0.64802148      -1.97042611      -5.83150464       0.02549619      -0.16087598       0.06575412      -0.30053905      -0.47305944      -0.43694533
9
Properties=species:S:1:pos:R:3:momenta:R:3:forces:R:3 R1=H R2=H R3=CH3 R4=CH3 leaving_group=Cl nucleophile=Cl rxn=sn2 config=rcc label=H_H_CH3_CH3_Cl_Cl_sn2_rcc conformation=0 reactant_id=H_H_CH3_CH3_Cl_none_-_r product_id=H_H_CH3_CH3_none_Cl_sn2_pc mp2_author_energy=-29302.391748605172 mp2_my_energy=0 hash=59123 address=T id=71 energy=-17370.28816815467 pbc="F F F"
C        0.49429887      -0.62244642      -5.27169534       0.21938950      -0.58650878      -0.65505196       0.23357903      -0.90952418      -0.25824589
C       -0.17622145      -1.69586112      -4.44757167       0.50382804       0.31279098       0.23394198       0.97196802      -1.54861451      -0.53009176
H       -1.05243831      -1.44420667      -3.86311714       0.03934472       0.04366642      -0.05456848       0.00229358       0.67425023       0.13330921
F        2.70256411      -1.34915276      -3.95799937      -1.47010131      -0.29998985      -0.89310883      -0.76052196       0.09952535      -0.34760006
Cl      -0.83461865       0.24389914      -6.28264769       0.80024993       0.19016018      -1.07117793      -0.33389443      -0.02945674      -0.15055250
H        1.18803060      -1.05635817      -6.00578330      -0.15555418       0.02319250       0.03895747      -0.25668398       0.29031929       0.60492136
H        0.96734677       0.13527246      -4.70202718       0.03834185       0.02754623       0.06006382       0.47808342       0.40362461       0.50952824
H        0.69252849      -2.03510640      -3.80956999      -0.07375492       0.10238771       0.08029082      -0.69757511       0.28775309      -0.47364999
H       -0.49519701      -2.54637108      -5.11188657       0.13619239      -0.05334489       0.17331192       0.36275144       0.73212286       0.51238138
9
Properties=species:S:1:pos:R:3:momenta:R:3:forces:R:3 R1=H R2=H R3=CH3 R4=CH3 leaving_group=Cl nucleophile=Cl rxn=sn2 config=rcc label=H_H_CH3_CH3_Cl_Cl_sn2_rcc conformation=0 reactant_id=H_H_CH3_CH3_Cl_none_-_r product_id=H_H_CH3_CH3_none_Cl_sn2_pc mp2_author_energy=-29302.391748605172 mp2_my_energy=0 hash=59123 address=T id=71 energy=-17370.085282330674 pbc="F F F"
C        0.54165130      -0.88121455      -6.24535181      -0.03258887      -0.15206519      -0.88860068      -1.61395833      -2.18686033      -0.21591891
C        0.01723812      -0.41902465      -4.94142771       0.44004777       1.04148563      -0.42092155       0.14318180       0.46287977       0.15658514
H       -0.08091066       0.64826510      -4.99218826       0.11347956       0.03177912      -0.08290593      -0.59397745       0.71399623       0.50012045
F        2.00814848      -2.34384226      -4.60088330      -0.92677708      -0.71221073      -0.73175825       0.50951643      -0.43991997       0.32226097
Cl      -0.51575489       0.10006157      -7.44116703       0.58974111      -0.31124412      -1.63623986      -0.05568338       0.14386991      -0.93754209
H        0.27008627      -1.96671208      -6.33934182      -0.05659411      -0.11094207       0.30632404       0.55460602       1.12882024      -0.26207564
H        1.58239379      -0.76812907      -6.41941863      -0.13396990      -0.09020052       0.18121449       0.72935145       0.39135296      -0.19644114
H        0.76393934      -0.67592768      -4.22195244       0.18283785       0.09199523       0.06610076       0.54514127      -0.57556214       0.54922930
H       -0.89383897      -0.96957709      -4.72483974      -0.11641969      -0.16680083      -0.08118207      -0.21817779       0.36142332       0.08378190
9
Properties=species:S:1:pos:R:3:momenta:R:3:forces:R:3 R1=H R2=H R3=CH3 R4=CH3 leaving_group=Cl nucleophile=Cl rxn=sn2 config=rcc label=H_H_CH3_CH3_Cl_Cl_sn2_rcc conformation=0 reactant_id=H_H_CH3_CH3_Cl_none_-_r product_id=H_H_CH3_CH3_none_Cl_sn2_pc mp2_author_energy=-29302.391748605172 mp2_my_energy=0 hash=59123 address=T id=71 energy=-17370.12949296674 pbc="F F F"
C        0.27655673      -0.96140724      -7.01104901       0.06632579      -1.44372251       0.03044588       1.82217418      -0.37932102       0.43423410
C        1.34448499      -0.14521485      -6.26817015       0.56272508      -0.46368456      -1.14468800       0.24560048       0.17371738      -1.13375818
H        2.16708654       0.30911323      -6.88574971      -0.05875806       0.08296360      -0.01731538      -1.01572680      -0.57359617       0.27577169
F        0.72183964      -2.75542168      -5.09231577      -0.66491648       0.57463899      -0.43336664       0.05387240       0.06142017       0.08109605
Cl      -0.23943037      -0.02633351      -8.60146953       0.56119314       0.71818034      -1.32739520      -0.00833690       0.02139817       0.48430321
H       -0.50580957      -1.16764759      -6.30981737      -0.09476767       0.10206298       0.16541441      -0.80385058       0.18210745      -0.11407795
H        0.68235802      -1.93786886      -7.26729906      -0.15647555       0.04877952       0.03257730      -0.12121274       0.26256024      -0.40996836
H        1.76953773      -0.89080862      -5.59358488      -0.30225685       0.02362944       0.08703476      -0.23275707      -0.06216574       0.16099383
H        0.85332515       0.64052322      -5.70809247       0.13544670       0.05009079      -0.06219172       0.06023702       0.31387950       0.22140560
9
Properties=species:S:1:pos:R:3:momenta:R:3:forces:R:3 R1=H R2=H R3=CH3 R4=CH3 leaving_group=Cl nucleophile=Cl rxn=sn2 config=rcc label=H_H_CH3_CH3_Cl_Cl_sn2_rcc conformation=0 reactant_id=H_H_CH3_CH3_Cl_none_-_r product_id=H_H_CH3_CH3_none_Cl_sn2_pc mp2_author_energy=-29302.391748605172 mp2_my_energy=0 hash=59123 address=T id=71 energy=-17370.060230633087 pbc="F F F"
C        0.16873982      -0.95690771      -7.82543710       0.40674224      -0.71425912      -1.07325538      -0.25976053      -0.45662395      -2.86800053
C        1.46021999      -1.67355899      -7.74680535      -0.41027688      -0.90105920      -0.36603344       0.43058231       0.72922539       0.62935250
H        1.69707857      -2.15171453      -8.67183198      -0.21817251      -0.08106108       0.01865622      -0.01662937      -1.12094228      -0.43362605
F       -0.01464109      -2.22145570      -5.52098385      -0.46237285       0.65249391       0.14085913      -0.21825105      -0.77164458       1.56424304
Cl       0.20088853       0.07567053      -9.53756495       0.79390913       1.00205453      -1.50245598       0.12833191      -0.08238970       0.22075456
H        0.06568366      -0.24354979      -7.09018815       0.14758904      -0.04733655      -0.02512958      -0.42319676       1.48731109       1.45468501
H       -0.71806722      -1.56667020      -7.94413412       0.16202903      -0.24654938       0.10708964       0.13635582      -0.01750087       0.12535338
H        1.32929144      -2.22623747      -6.76600696      -0.12794744       0.10822676      -0.13580612      -0.04706070      -0.09229773      -0.90416648
H        2.25061684      -0.94053506      -7.63274063      -0.23535372      -0.12786154      -0.25322778       0.26962836       0.32486262       0.21140458
9
Properties=species:S:1:pos:R:3:momenta:R:3:forces:R:3 R1=H R2=H R3=CH3 R4=CH3 leaving_group=Cl nucleophile=Cl rxn=sn2 config=rcc label=H_H_CH3_CH3_Cl_Cl_sn2_rcc conformation=0 reactant_id=H_H_CH3_CH3_Cl_none_-_r product_id=H_H_CH3_CH3_none_Cl_sn2_pc mp2_author_energy=-29302.391748605172 mp2_my_energy=0 hash=59123 address=T id=71 energy=-17369.947590252395 pbc="F F F"
C        0.41377444      -1.04014244      -8.83508279       0.29840115       0.37036460      -0.76003632      -2.88126404       0.30792174       1.81043352
C       -0.14384141      -2.39870352      -9.16999322      -0.63965445       0.38691653      -1.20073915       1.39035792       0.59533985      -2.09655099
H       -0.87603127      -2.32692635      -9.99852593      -0.33882002       0.07995671       0.09145859       0.33995600       0.03057387       0.36914677
F       -0.26472886      -1.69120227      -6.28707622      -0.19964805       0.32643241      -0.71547445       0.37209335       0.28860203      -1.71630845
Cl       0.96779702      -0.13703565     -10.45049038       0.97299025      -1.64054901      -0.52092304       0.08217871      -0.21097478      -0.56735859
H        1.26042954      -0.99123773      -8.21111163       0.15944746       0.14496037      -0.12496077       0.66061684      -0.22350360       0.75967973
H       -0.42574921      -0.44307058      -8.44957891      -0.18846112       0.02079267       0.15335446       0.80273517       0.03731190       0.06165703
H       -0.64106188      -2.68122105      -8.26216143      -0.01084788       0.06611632      -0.05761655       0.19860841      -0.53741435       0.80149930
H        0.73151849      -2.98720626      -9.54272121       0.00840888      -0.14622926      -0.26635499      -0.96528236      -0.28785665       0.57780170
9
Properties=species:S:1:pos:R:3:momenta:R:3:forces:R:3 R1=H R2=H R3=CH3 R4=CH3 leaving_group=Cl nucleophile=Cl rxn=sn2 config=rcc label=H_H_CH3_CH3_Cl_Cl_sn2_rcc conformation=0 reactant_id=H_H_CH3_CH3_Cl_none_-_r product_id=H_H_CH3_CH3_none_Cl_sn2_pc mp2_author_energy=-29302.391748605172 mp2_my_energy=0 hash=59123 address=T id=71 energy=-17369.990475596045 pbc="F F F"
C        0.50541266      -1.28521387      -9.71857048      -0.37271824       0.11812407       0.01521604      -0.22552705      -0.37089029      -2.39471473
C       -0.94510703      -0.90522079     -10.05672575      -0.07199774       0.62173049      -0.33962054       1.72968331       1.43912375       1.54727075
H       -0.95081055       0.16268429     -10.28892429       0.33940431      -0.05809065       0.16478326      -0.18410370      -0.02464052      -0.23859091
F       -0.66174553      -1.72994230      -7.39338025      -0.77573004      -0.00827723      -1.03144794      -0.81988720      -0.36827892       1.84761241
Cl       1.52459883      -0.92184615     -11.45556549       0.83334596      -1.17756657      -2.04087345      -0.03978256       0.20763274      -0.12611079
H        0.69473012      -2.35464396      -9.65687247       0.05062023       0.11075050      -0.09435942      -0.10753974       0.37853586       0.43735529
H        1.01122725      -0.67014460      -8.99003625       0.24051236       0.08604909       0.11649407      -0.15955404      -0.10096297       0.01588622
H       -1.46136338      -1.05364912      -9.10360768      -0.02168029      -0.23163466       0.21679917       0.11691153      -0.20297339       0.22463323
H       -1.40348915      -1.45511388     -10.82220463      -0.16909240       0.20560031       0.09528774      -0.31020054      -0.95754626      -1.31334145
9
Properties=species:S:1:pos:R:3:momenta:R:3:forces:R:3 R1=H R2=H R3=CH3 R4=CH3 leaving_group=Cl nucleophile=Cl rxn=sn2 config=rcc label=H_H_CH3_CH3_Cl_Cl_sn2_rcc conformation=0 reactant_id=H_H_CH3_CH3_Cl_none_-_r product_id=H_H_CH3_CH3_none_Cl_sn2_pc mp2_author_energy=-29302.391748605172 mp2_my_energy=0 hash=59123 address=T id=71 energy=-17370.015679720156 pbc="F F F"
C        0.31846442      -1.48028575     -10.53688623       0.17759683       0.19052121      -0.63524484      -0.79469409      -0.59634936      -0.41475562
C        0.09675504      -0.01790571     -10.38884223       0.89405240       0.25181021      -0.43131295      -0.10821565       0.42056701      -1.22607955
H        1.02920844       0.54707368     -10.20548114       0.36953685       0.18150336      -0.00898027      -0.43924015      -0.40159874       0.13044202
F       -1.39439202      -1.59143795      -8.45850535      -1.68970172      -0.10052530      -0.50483217       0.32152399       0.09629706      -0.37829455
Cl       1.58605206      -1.50963564     -12.28229330      -0.35588151      -0.78283766      -1.87314527      -0.22569508       0.02521505      -0.05784561
H       -0.57205962      -2.11517759     -10.75040758      -0.03835528      -0.25435850      -0.19954371       0.96145439       0.73549942       0.12481377
H        1.06025211      -1.95106669      -9.94439341       0.04641304       0.09431806       0.11623804       0.11933449      -0.29739179       0.75329047
H       -0.63728950       0.03357352      -9.58444899       0.19645440       0.16261210       0.19959711      -0.02432469       0.11162084       0.33562431
H       -0.33286344       0.35530635     -11.34851073       0.46466144      -0.15301756      -0.22694748       0.18985678      -0.09385949       0.73280475
9
Properties=species:S:1:pos:R:3:momenta:R:3:forces:R:3 R1=H R2=H R3=CH3 R4=CH3 leaving_group=Cl nucleophile=Cl rxn=sn2 config=rcc label=H_H_CH3_CH3_Cl_Cl_sn2_rcc conformation=0 reactant_id=H_H_CH3_CH3_Cl_none_-_r product_id=H_H_CH3_CH3_none_Cl_sn2_pc mp2_author_energy=-29302.391748605172 mp2_my_energy=0 hash=59123 address=T id=71 energy=-17369.881458976237 pbc="F F F"
C        0.27842761      -1.30905544     -11.82858779       0.40487221      -0.63322384      -0.37450851      -2.38996742      -0.69018727       0.15256592
C        1.02559666      -1.25148670     -10.58552487       0.35521597      -0.65381948      -0.19017073       0.28331724       2.30870719       1.16608606
H        1.26291166      -2.20213816     -10.13578391      -0.22493556       0.09379839      -0.25039853       0.22213880      -0.38955057      -0.08453642
F       -1.88299122      -0.41489454     -10.43325550       0.22785386       1.05712983      -1.72523290       1.62681771      -0.61637322      -0.75150175
Cl       1.53365275      -2.01116003     -13.32691898      -0.35509146      -0.72586169      -1.58864449      -0.17774660       0.04617485       0.56370323
H       -0.07145547      -0.38800976     -12.23041874      -0.02783335       0.36441418       0.19746086       0.02983900       0.63356539      -0.20666329
H       -0.57462923      -1.96692995     -11.67504924      -0.08371297       0.12731894      -0.37153094       0.10972596      -0.05752612      -0.63052427
H        0.19114522      -0.75217697      -9.97192590      -0.02536375      -0.03518323      -0.12159899       0.98109288      -0.49891548      -0.52702060
H        1.91857155      -0.57448456     -10.67068280      -0.19708444      -0.06242063       0.35732120      -0.68521757      -0.73589477       0.31789113
9
Properties=species:S:1:pos:R:3:momenta:R:3:forces:R:3 R1=H R2=H R3=CH3 R4=CH3 leaving_group=Cl nucleophile=Cl rxn=sn2 config=rcc label=H_H_CH3_CH3_Cl_Cl_sn2_rcc conformation=0 reactant_id=H_H_CH3_CH3_Cl_none_-_r product_id=H_H_CH3_CH3_none_Cl_sn2_pc mp2_author_energy=-29302.391748605172 mp2_my_energy=0 hash=59123 address=T id=71 energy=-17369.908115996554 pbc="F F F"
C        0.49923082      -1.21066477     -12.86365520       0.40030005       0.06152654      -0.35028521      -0.21184909      -1.20565021      -0.21800933
C       -0.38902885      -2.23382753     -12.17134819      -0.30097827       0.21864808      -1.47795769      -1.31307127       0.97235761      -0.49376262
H       -0.83514614      -2.79603910     -13.01613872      -0.05215741      -0.05122712      -0.00524207      -0.26205824       0.01427919       0.80780422
F       -1.13818380       0.60407374     -11.77836579       0.49050948      -0.01176484      -0.55854236      -0.24052189       0.12805231       0.25543721
Cl       1.67814127      -2.46932276     -14.03068342      -0.55588436      -0.73481928      -0.02923473       0.02632762       0.09065872       0.00237151
H        1.22767880      -0.79831454     -12.24163364      -0.05181452       0.11660193       0.07444448       1.02908911       0.78538986       0.80982558
H        0.10087514      -0.46700297     -13.55420360      -0.04985130       0.14690575      -0.08171610      -0.27237159      -0.69077830       0.37404890
H       -1.15129007      -1.62293389     -11.57695209       0.21901993       0.08010303      -0.31006154       0.90934622      -0.52537615      -1.03864389
H        0.09910452      -2.94091775     -11.48288254      -0.04933328      -0.14122668      -0.00210067       0.33510911       0.43106697      -0.49907159
9
Properties=species:S:1:pos:R:3:momenta:R:3:forces:R:3 R1=H R2=H R3=CH3 R4=CH3 leaving_group=Cl nucleophile=Cl rxn=sn2 config=rcc label=H_H_CH3_CH3_Cl_Cl_sn2_rcc conformation=0 reactant_id=H_H_CH3_CH3_Cl_none_-_r product_id=H_H_CH3_CH3_none_Cl_sn2_pc mp2_author_energy=-29302.391748605172 mp2_my_energy=0 hash=59123 address=T id=71 energy=-17369.832713909625 pbc="F F F"
C        0.57039373      -1.44312807     -13.62200654      -0.30480948      -0.63271518      -0.37523509      -1.26893836      -0.61614141      -0.77842345
C       -0.55843828      -1.22103819     -14.61428766       0.33061054       1.04655528      -0.83434017      -0.46072991      -0.61771320      -0.46789000
H       -0.27664696      -1.12071532     -15.70210849      -0.02490874       0.14190084      -0.09495436       0.45815493      -0.18559470       1.25723182
F       -0.67304633       0.81456806     -12.83609124       0.13522988      -0.42388411      -1.09075393       0.20592936      -0.00685088       0.14321382
Cl       1.51485761      -3.20394599     -14.55096092      -0.59654653      -0.80549491      -0.55547829      -0.08583579       0.37131244       0.22745485
H        0.42787064      -1.81817179     -12.59766579       0.08860353      -0.08112557      -0.13761223      -0.38979868       0.21508748      -0.87695343
H        1.21308433      -0.62862858     -13.68284299       0.09029539      -0.02748944       0.00076336       1.42454591       0.95071953       0.15078390
H       -0.95496314      -0.22997110     -14.24353093       0.10044779       0.10410907      -0.37777899      -0.07348109      -0.75607765       0.10626119
H       -1.27098819      -2.07210788     -14.59232714       0.24324220       0.28470047       0.04492897       0.19015363       0.64525838       0.23832129
9
Properties=species:S:1:pos:R:3:momenta:R:3:forces:R:3 R1=H R2=H R3=CH3 R4=CH3 leaving_group=Cl nucleophile=Cl rxn=sn2 config=rcc label=H_H_CH3_CH3_Cl_Cl_sn2_rcc conformation=0 reactant_id=H_H_CH3_CH3_Cl_none_-_r product_id=H_H_CH3_CH3_none_Cl_sn2_pc mp2_author_energy=-29302.391748605172 mp2_my_energy=0 hash=59123 address=T id=71 energy=-17370.040554423947 pbc="F F F"
C        0.39670993      -1.59669499     -14.70360685       0.80541662       0.23218073      -1.00675044      -0.06593148       0.75691516      -0.27353702
C        1.07833981      -0.87010422     -15.81869583      -0.07601312       0.06323717      -0.28345009      -1.63840789      -0.26210961      -0.01174051
H        2.08530549      -1.18359379     -15.89220516       0.12344330      -0.22667879       0.44541613       1.11930545      -0.10255135      -0.24862373
F       -0.49832760       0.88162639     -14.05753947       0.28891618      -0.75150532      -0.85478175       0.52077263      -1.18654104      -0.35037563
Cl       0.83387167      -3.58646763     -15.17825495      -1.14270620       0.12316707      -0.48032173      -0.12606055       0.11245526       0.08014988
H       -0.67650379      -1.52220794     -14.66858573      -0.08844714       0.07892895      -0.21764601      -0.03964893      -0.03858069       0.13491317
H        0.90602314      -1.48888249     -13.76235457      -0.23015794      -0.02297124      -0.15814954      -0.19986307       0.02600539       0.28695790
H        0.92317396       0.13652160     -15.49388313       0.19654427       0.00446928      -0.06557993       0.24037089       1.08082543       0.37909342
H        0.54213525      -0.95657308     -16.76825942       0.17444043       0.17362799      -0.20890389       0.18946295      -0.38641854       0.00316251
9
Properties=species:S:1:pos:R:3:momenta:R:3:forces:R:3 R1=H R2=H R3=CH3 R4=CH3 leaving_group=Cl nucleophile=Cl rxn=sn2 config=rcc label=H_H_CH3_CH3_Cl_Cl_sn2_rcc conformation=0 reactant_id=H_H_CH3_CH3_Cl_none_-_r product_id=H_H_CH3_CH3_none_Cl_sn2_pc mp2_author_energy=-29302.391748605172 mp2_my_energy=0 hash=59123 address=T id=71 energy=-17369.96130935881 pbc="F F F"
C        0.43132195      -1.63277978     -15.82021578      -0.43226724       0.06827613      -0.77734268      -0.00339322      -1.75331356       1.85029298
C        1.81408648      -1.38029582     -15.30076177      -0.60289993      -0.37329120       0.60367787       0.32584850       1.49219822      -0.08503467
H        2.12642513      -2.08793323     -14.53497014       0.16947634       0.06433768      -0.06709745      -0.06648124      -0.04563926      -0.03833157
F       -0.07956475       0.96937275     -15.73074742       0.79880375       0.04451740      -0.87887078      -0.03813783       1.17801488       0.09463483
Cl       0.31400931      -3.64109987     -16.06290927      -0.01898345      -0.27833738      -1.03411774       0.16352153       0.00211026      -0.24638759
H        0.20633431      -1.11006163     -16.70438286      -0.00433443       0.01294102      -0.08226839      -0.35293822       0.34555303      -1.03815315
H       -0.35296292      -1.47296468     -15.06247292       0.04512900       0.18231613      -0.24145680       0.54185061       0.03063668      -0.58025948