9
Properties=species:S:1:pos:R:3:momenta:R:3:forces:R:3 R1=H R2=H R3=CH3 R4=CH3 leaving_group=Cl nucleophile=Cl rxn=sn2 config=rcc label=H_H_CH3_CH3_Cl_Cl_sn2_rcc conformation=0 reactant_id=H_H_CH3_CH3_Cl_none_-_r product_id=H_H_CH3_CH3_none_Cl_sn2_pc mp2_author_energy=-29302.391748605172 mp2_my_energy=0 hash=59123 address=T id=71 energy=-17370.412368016237 pbc="F F F"
C        0.12542541       0.11270554      -0.00029240       0.07085020      -0.81609741       0.23645688      -0.09214561       1.11788396      -0.00082481
C        1.62503867       0.00847468       0.00156754      -0.14678670       0.31750442       1.18122612      -0.06338950      -0.85342640       0.00215309
H        1.99473018      -0.50605055       0.89354482       0.13043557       0.16839971       0.06276070       0.00320508       0.00300841       0.00517082
F        0.89788639       2.64149152      -0.00442372       1.18335386      -0.97430679       1.11678183      -0.23271315      -0.10403772      -0.00076135
Cl      -0.69504884      -1.53494042       0.00509220       1.02574192       1.74537268      -0.34639314       0.38207948      -0.16174994      -0.00050876
H       -0.22306082       0.64592326      -0.87549887       0.11956144      -0.08039563      -0.18021110      -0.00302890      -0.00293595      -0.00472561
H       -0.22431889       0.65275656       0.87018381       0.40013158       0.14674896       0.09336938      -0.00396382      -0.00350204       0.00469305
H        1.88822962       1.08069343      -0.00059746       0.22730925       0.04176998      -0.11964826       0.00778691       0.00253743      -0.00033365
H        1.99700981      -0.51031959      -0.88698835      -0.04398129       0.03344814      -0.07825274       0.00216950       0.00222225      -0.00486279
9
Properties=species:S:1:pos:R:3:momenta:R:3:forces:R:3 R1=H R2=H R3=CH3 R4=CH3 leaving_group=Cl nucleophile=Cl rxn=sn2 config=rcc label=H_H_CH3_CH3_Cl_Cl_sn2_rcc conformation=0 reactant_id=H_H_CH3_CH3_Cl_none_-_r product_id=H_H_CH3_CH3_none_Cl_sn2_pc mp2_author_energy=-29302.391748605172 mp2_my_energy=0 hash=59123 address=T id=71 energy=-17370.309175428123 pbc="F F F"
C        1.26408047       0.38449698       0.66284562       0.42733926      -0.23467871       0.34535122      -1.96698767      -0.86172579      -0.81972750
C        2.17348922      -0.48912623       1.42966620       0.51124415       0.14751985       0.60821929       0.67177743       0.22223751       1.13398691
H        1.68647634      -1.00539096       2.27631756       0.07793045      -0.12947266      -0.06001968       0.12084015       0.07248522      -0.51890446
F        2.66961758       2.44607391       1.46838129       1.06095298      -0.29559759       1.00387322       0.32697536       0.16568493       0.18655292
Cl       0.00955160      -0.85181880      -0.10602005       0.54552264       1.03540058      -0.16395204       0.47253983       0.41600285       0.11276573
H        1.77796753       0.85266587      -0.16550328       0.07096113      -0.12462421      -0.08536516      -0.21650411       0.29725514       0.09726179
H        0.60277696       1.05892885       1.21780223      -0.07808347       0.00335531      -0.16868919       0.83903089      -0.11582557      -0.15965015
H        2.93434613       0.19193448       1.82393119      -0.08914436       0.07454003      -0.02186014      -0.17162195       0.20855370       0.01965691
H        2.67123521      -1.18517582       0.76488933       0.01168373       0.02192991       0.22474149      -0.07604995      -0.40466799      -0.05194214
9
Properties=species:S:1:pos:R:3:momenta:R:3:forces:R:3 R1=H R2=H R3=CH3 R4=CH3 leaving_group=Cl nucleophile=Cl rxn=sn2 config=rcc label=H_H_CH3_CH3_Cl_Cl_sn2_rcc conformation=0 reactant_id=H_H_CH3_CH3_Cl_none_-_r product_id=H_H_CH3_CH3_none_Cl_sn2_pc mp2_author_energy=-29302.391748605172 mp2_my_energy=0 hash=59123 address=T id=71 energy=-17370.394783351872 pbc="F F F"
C        2.38720356       0.55889891       1.28364427       0.85201363      -0.25492732       0.88532175      -0.62540429      -0.35217532       0.12781690
C        2.19257883      -0.44662035       2.40837595      -0.25015646      -0.45231953       0.26170184       0.67341341       0.17729153      -0.19368434
H        1.18407538      -0.46283560       2.83523166      -0.13825904       0.22213148       0.03221967       0.06893706       0.03993511      -0.31560894
F        4.22401690       1.54979256       2.88179963       1.08303613      -0.24997129       0.81160065       0.17314843       0.07116206       0.15944512
Cl       1.10518018       0.01986143       0.04932217       1.20514614       1.03925612       0.11417945       0.19781593       0.41100855      -0.10849752
H        3.36694755       0.45680946       0.82779885      -0.00136294       0.16533827       0.17907761      -0.12270253      -0.02826809       0.03533078
H        2.26974082       1.61236216       1.57191082       0.15259481       0.04206230      -0.17560534      -0.21746994      -0.61749742      -0.09045914
H        2.91439129      -0.11291051       3.15387767       0.05318983      -0.01121988       0.01644888       0.16800382       0.06041059       0.09622459
H        2.47671337      -1.44051084       2.02194982      -0.09013511       0.06235287      -0.22549239      -0.31574189       0.23813299       0.28943255
9
Properties=species:S:1:pos:R:3:momenta:R:3:forces:R:3 R1=H R2=H R3=CH3 R4=CH3 leaving_group=Cl nucleophile=Cl rxn=sn2 config=rcc label=H_H_CH3_CH3_Cl_Cl_sn2_rcc conformation=0 reactant_id=H_H_CH3_CH3_Cl_none_-_r product_id=H_H_CH3_CH3_none_Cl_sn2_pc mp2_author_energy=-29302.391748605172 mp2_my_energy=0 hash=59123 address=T id=71 energy=-17370.290380860515 pbc="F F F"
C        3.49589728       0.59862901       2.02710227       1.06696877      -0.54821903       0.31234526       0.86656872      -1.67937575       1.77508825
C        2.51450458       0.13547775       3.09808891      -0.10702084       0.65662813      -0.51297502      -0.08022905       0.15043505      -1.29655930
H        1.84598733       0.94314602       3.37070950       0.01085888       0.04023119      -0.15117410       0.03110446       0.42370675       0.53181728
F        5.14530299       0.18892885       3.99866743       0.61488746      -0.95999570       0.99942312      -0.61354974       0.18263294      -0.89115078
Cl       2.56110887       0.99876039       0.53154590       1.34067939       1.31436977       1.50227156      -0.31839197       0.42074805      -0.44787123
H        4.13534645      -0.24705762       1.80731356       0.10275312       0.01467961       0.14088254       0.12632763       0.04331210      -0.20656652
H        4.14655828       1.35688694       2.38993443       0.12701737       0.00886599      -0.02966284       0.22479912       0.83183467       0.02787051
H        3.24567582      -0.19034146       3.86829029       0.04657290       0.08582618      -0.16465957      -0.59432041       0.02170190       0.00117970
H        1.84570372      -0.59746251       2.62058364       0.00786046       0.01795560       0.03132143       0.35769124      -0.39499572       0.50619209
9
Properties=species:S:1:pos:R:3:momenta:R:3:forces:R:3 R1=H R2=H R3=CH3 R4=CH3 leaving_group=Cl nucleophile=Cl rxn=sn2 config=rcc label=H_H_CH3_CH3_Cl_Cl_sn2_rcc conformation=0 reactant_id=H_H_CH3_CH3_Cl_none_-_r product_id=H_H_CH3_CH3_none_Cl_sn2_pc mp2_author_energy=-29302.391748605172 mp2_my_energy=0 hash=59123 address=T id=71 energy=-17370.320834327536 pbc="F F F"
C        4.38414066       0.64398449       2.78254228       0.25685581       0.43726817      -0.29148454       1.50648648      -0.43988064      -1.69086873
C        3.29392097       0.76760128       3.75858574       0.68897460      -0.06700843       0.13188845      -0.23451993      -0.02341095       0.31989523
H        3.21395346       1.77460180       4.17720294       0.14304772       0.00484639       0.08492860      -0.12830381      -0.03143997      -0.09379348
F        5.30363218      -0.99507171       4.45671635      -0.17168605      -0.41621861      -0.23138585       0.02217836      -0.08541743       0.08872404
Cl       4.20868804       1.83419198       1.30473520       2.21972407       0.35613597       1.61578243      -0.51192044       0.05526616       0.54301965
H        4.47757278      -0.31114381       2.26872495      -0.04190741      -0.12412847       0.11178665      -0.39215357       0.02892140       0.49117247
H        5.35809768       0.83324620       3.18394067      -0.01441458       0.20898681       0.19320119       0.23473925       0.24444257       0.33216110
H        3.72509911       0.05977167       4.50144180      -0.10982700       0.00731170       0.20554300      -0.29900014       0.08669287      -0.03206852
H        2.34777542       0.40040967       3.36362900      -0.11406312       0.15367124       0.07298699      -0.19750620       0.16482600       0.04175824
9
Properties=species:S:1:pos:R:3:momenta:R:3:forces:R:3 R1=H R2=H R3=CH3 R4=CH3 leaving_group=Cl nucleophile=Cl rxn=sn2 config=rcc label=H_H_CH3_CH3_Cl_Cl_sn2_rcc conformation=0 reactant_id=H_H_CH3_CH3_Cl_none_-_r product_id=H_H_CH3_CH3_none_Cl_sn2_pc mp2_author_energy=-29302.391748605172 mp2_my_energy=0 hash=59123 address=T id=71 energy=-17370.37624360055 pbc="F F F"
C        5.41531650       0.74701934       3.40185822      -0.25562528      -0.39203814       0.87141195       0.06930321       0.01673068      -0.71702118
C        4.43780542       1.18680443       4.43069879       0.41504479      -0.12232278       1.01401404      -0.68427741       0.43968655       0.91653750
H        4.90289912       1.72997377       5.25434497       0.02498951      -0.04448292       0.09959474       0.24144178       0.21776294      -0.12861921
F        4.96483587      -1.48619609       4.31158587      -0.25053250      -0.02181285      -0.35839803       0.05934210      -0.26467955       0.05929739
Cl       5.87543773       2.34163067       2.41551240       2.86295114       0.95443978       0.40768218      -0.06274012      -0.46449632       0.39018289
H        4.99865948       0.04039820       2.67697827       0.11959618       0.12605793      -0.25700046       0.34301311       0.36622983       0.38512390
H        6.33675035       0.38543992       3.85319750       0.05374575       0.22826526       0.08444806      -0.18634473      -0.02859139      -0.34090212
H        4.03647243       0.27779020       4.86421345      -0.01788076      -0.01296413       0.00523620       0.16668393      -0.44104416      -0.14990366
H        3.60388794       1.78809264       4.07330703      -0.00094835      -0.13569715       0.08897744       0.05357814       0.15840141      -0.41469552
9
Properties=species:S:1:pos:R:3:momenta:R:3:forces:R:3 R1=H R2=H R3=CH3 R4=CH3 leaving_group=Cl nucleophile=Cl rxn=sn2 config=rcc label=H_H_CH3_CH3_Cl_Cl_sn2_rcc conformation=0 reactant_id=H_H_CH3_CH3_Cl_none_-_r product_id=H_H_CH3_CH3_none_Cl_sn2_pc mp2_author_energy=-29302.391748605172 mp2_my_energy=0 hash=59123 address=T id=71 energy=-17370.335605048138 pbc="F F F"
C        6.25178144       0.93253378       3.87341361       0.71155031       0.62490777      -0.67660658      -1.04000252      -0.03142472       0.83296109
C        5.54593262       1.33024202       5.18702927      -0.33277705      -0.88089160       0.63292133       0.55746995      -0.95574564      -0.01382252
H        6.30926901       1.46840556       5.96856059       0.04208787       0.14418999      -0.01416300      -0.20507750       0.07805153      -0.17677442
F        4.80405985      -0.99445224       3.80890470       0.41722255       1.32556761       0.06913720       0.34577066       0.47619778       0.08631607
Cl       7.43453350       2.38746237       3.69192903       2.40096916      -0.44447780       1.72940159       0.32448418       0.25668732      -0.53056415
H        5.56641053       0.84906843       3.03144375      -0.14471963      -0.08006279       0.12413811       0.35724643       0.16730046       0.19296452
H        6.88458031       0.04988185       3.94077630      -0.08616201       0.00439207       0.06121667      -0.37146148       0.21214346       0.12965476
H        4.93644534       0.46485427       5.43853576       0.03660117      -0.05507232       0.03265053      -0.18131379      -0.00880554      -0.16672724
H        4.93973408       2.24336338       5.13621209       0.06139177      -0.02871096       0.09987782       0.21288407      -0.19440465      -0.35400810
9
Properties=species:S:1:pos:R:3:momenta:R:3:forces:R:3 R1=H R2=H R3=CH3 R4=CH3 leaving_group=Cl nucleophile=Cl rxn=sn2 config=rcc label=H_H_CH3_CH3_Cl_Cl_sn2_rcc conformation=0 reactant_id=H_H_CH3_CH3_Cl_none_-_r product_id=H_H_CH3_CH3_none_Cl_sn2_pc mp2_author_energy=-29302.391748605172 mp2_my_energy=0 hash=59123 address=T id=71 energy=-17370.15912165971 pbc="F F F"
C        6.99820670       1.40296236       4.42257090      -0.12379623      -0.25820286      -0.11314960       0.79971281      -1.18469510      -0.87566012
C        6.46308935       1.02519744       5.75664501       0.70037324      -0.13142677       0.19066999       0.23653596       1.21316683       0.99634968
H        7.28666073       0.50592600       6.26808249       0.07328799      -0.18382404      -0.17646274      -0.68059519      -0.42650337       0.11853879
F        5.20355420       0.24750420       3.48986835       0.97457927       1.70566207      -0.01434032      -0.70414938      -0.19766780      -0.21827189
Cl       8.69889186       2.07835357       4.85053962       2.04221433      -0.68358477       2.42221009       0.86447358       0.80636592       0.00858174
H        6.53282624       2.11329109       3.75824177       0.06390812       0.13174789       0.09894127      -0.41581345       0.06224320       0.44247929
H        7.16747444       0.48867136       3.88590514       0.12288734       0.02380728       0.13859334       0.22652374       0.13754173      -0.45947930
H        5.56402823       0.44567251       5.57239316       0.05349510       0.14316820       0.11244467      -0.00210331      -0.00967556       0.02826066
H        6.29621392       1.94130582       6.35344193       0.11325744       0.04195152       0.00543784      -0.32458478      -0.40077587      -0.04079885
9
Properties=species:S:1:pos:R:3:momenta:R:3:forces:R:3 R1=H R2=H R3=CH3 R4=CH3 leaving_group=Cl nucleophile=Cl rxn=sn2 config=rcc label=H_H_CH3_CH3_Cl_Cl_sn2_rcc conformation=0 reactant_id=H_H_CH3_CH3_Cl_none_-_r product_id=H_H_CH3_CH3_none_Cl_sn2_pc mp2_author_energy=-29302.391748605172 mp2_my_energy=0 hash=59123 address=T id=71 energy=-17370.255955352986 pbc="F F F"
C        7.97437382       1.64055736       5.00740503       0.41827064      -0.00068477      -0.69680251       0.23358683      -0.34196188       1.22498972
C        7.15451103       0.68845194       5.86753772       0.99254326      -0.24369832       0.20939797      -0.08526558      -0.36637991      -0.65082917
H        7.67107070      -0.27468500       5.95035488      -0.05901240      -0.08053881       0.01805859       0.12716348       0.24108346       0.53828215
F        6.16266512       1.91934982       3.68261990       0.67500645       1.48768337       0.20473448      -0.77575399       0.07606023      -0.56765688
Cl       9.73551977       1.66044438       5.94961989       0.33907295      -0.56709679       1.70710324      -0.43056013       0.19527550      -0.16328753
H        7.54547745       2.62385048       4.90997402       0.24929946       0.12040805       0.05237253       0.39552061       0.18829221       0.27632281
H        8.23530607       1.26763424       4.04323716       0.03979061      -0.03438185      -0.00950095       0.09440493      -0.24971738      -0.24927136
H        6.26450947       0.48125532       5.28117399       0.03302631      -0.05287054       0.28002396      -0.10929554       0.35280203      -0.20523386
H        6.81979776       1.09749701       6.83251836       0.06179878      -0.08894512       0.05700761       0.55019938      -0.09545427      -0.20331587
9
Properties=species:S:1:pos:R:3:momenta:R:3:forces:R:3 R1=H R2=H R3=CH3 R4=CH3 leaving_group=Cl nucleophile=Cl rxn=sn2 config=rcc label=H_H_CH3_CH3_Cl_Cl_sn2_rcc conformation=0 reactant_id=H_H_CH3_CH3_Cl_none_-_r product_id=H_H_CH3_CH3_none_Cl_sn2_pc mp2_author_energy=-29302.391748605172 mp2_my_energy=0 hash=59123 address=T id=71 energy=-17370.135644823935 pbc="F F F"
C        8.91720430       1.99655975       5.63026438       0.18776752      -0.07252521      -0.19523352       1.31742700      -0.58159883       1.67525936
C        8.00827983       0.83073429       5.41771949       0.20458710       0.10836644      -0.18147870      -0.23492594       0.15199416       0.07624566
H        8.43035120       0.02061358       4.81383752       0.11938510       0.13369390       0.01399915       0.24419952       0.41021093      -0.06903658
F        7.60490965       3.29483603       4.45131241       1.35824020       1.43030957       0.69099976      -0.31124696       0.25953931      -0.34092269
Cl      10.38229457       1.13495194       6.91078080       1.05750572      -0.82128724       1.62388275      -0.19338423      -0.15968394      -0.32912298
H        8.74241229       2.77608921       6.33510055      -0.10771717      -0.11903382       0.09519256      -0.95287941      -0.07272072       0.10301136
H        9.60126377       2.34035315       4.91036906       0.19067077       0.06312685       0.08846662       0.24542168      -0.15047266      -1.07257295
H        7.18074907       1.31694694       4.91180563       0.04682590      -0.03074235       0.04125106      -0.19079619      -0.16020629      -0.16547211
H        7.68081852       0.36730141       6.35067779       0.30366893      -0.03204647       0.05033974       0.07618452       0.30293803       0.12261092
9
Properties=species:S:1:pos:R:3:momenta:R:3:forces:R:3 R1=H R2=H R3=CH3 R4=CH3 leaving_group=Cl nucleophile=Cl rxn=sn2 config=rcc label=H_H_CH3_CH3_Cl_Cl_sn2_rcc conformation=0 reactant_id=H_H_CH3_CH3_Cl_none_-_r product_id=H_H_CH3_CH3_none_Cl_sn2_pc mp2_author_energy=-29302.391748605172 mp2_my_energy=0 hash=59123 address=T id=71 energy=-17370.176441538566 pbc="F F F"
C       10.05957639       2.29653396       6.47751437      -0.16351777       0.08059445       0.63392567       0.24577059      -0.00774528       1.51637949
C        9.56146395       1.60008259       5.28459945       0.80575416      -0.04516338      -0.30865456      -0.27067197       0.72273145      -1.22185966
H       10.39279525       1.33697901       4.63295680       0.00069542       0.05160766      -0.01050802      -0.01824179      -0.45946330       0.03408832
F        9.42203755       4.16995621       5.65455006       0.99772497       1.00547518       0.58286272       0.00904712       0.47958422      -0.26447615
Cl      10.61701340       0.66940190       7.52590543       0.48628611      -0.87578257       0.78276583       0.44811604      -0.52278126       0.60568716
H        9.36337742       2.72376212       7.16107065       0.01980862       0.10205625       0.03877783      -0.38603319      -0.02980709       0.09482365
H       10.99253280       2.82131777       6.51561542       0.08945998       0.09766636      -0.12310401       0.08523017       0.12537602      -0.56869473
H        8.97657707       2.34019703       4.75757306       0.05742598      -0.15589485      -0.05128483      -0.10262493       0.19514137      -0.13745071
H        8.92793719       0.76484819       5.54009575      -0.06160598       0.17766193      -0.06552805      -0.01059206      -0.50303614      -0.05849738
9
Properties=species:S:1:pos:R:3:momenta:R:3:forces:R:3 R1=H R2=H R3=CH3 R4=CH3 leaving_group=Cl nucleophile=Cl rxn=sn2 config=rcc label=H_H_CH3_CH3_Cl_Cl_sn2_rcc conformation=0 reactant_id=H_H_CH3_CH3_Cl_none_-_r product_id=H_H_CH3_CH3_none_Cl_sn2_pc mp2_author_energy=-29302.391748605172 mp2_my_energy=0 hash=59123 address=T id=71 energy=-17370.08980688513 pbc="F F F"
C       10.97347011       2.50616511       7.08384672       0.03487278       0.55842850       0.23613605       0.51294214      -0.83534384      -0.00884687
C       11.09596885       2.23455762       5.59914982       0.50010261       0.00525050       0.43399706      -0.08104869       1.18939403       0.37131108
H       12.10722822       1.98244776       5.28944902       0.06928236      -0.13375090       0.04471041       0.14321768      -0.21605875       0.30258879
F       10.95082442       4.62969515       6.76499171       1.46121222       0.03209487       0.90371379       0.18478904      -0.54171954       0.01661127
Cl      10.66911831       0.44753260       7.80689175       0.52403394      -0.13874318      -0.14515960       0.28606726       0.16829099      -0.26163785
H       10.08723867       2.77132625       7.58522775       0.03904317       0.21706927       0.06270307      -0.70414094       0.42801446      -0.37383678
H       11.86548471       2.63526961       7.66626230      -0.09443372       0.01117731       0.27905013       0.09927430       0.17638698      -0.15606854
H       10.88780971       3.21489244       5.17759336       0.19374131       0.07544762       0.15104320      -0.05991663       0.12120508      -0.09214465
H       10.40302460       1.52266609       5.18899491       0.09354383      -0.07304087      -0.09634550      -0.38118417      -0.49016941       0.20202355
9
Properties=species:S:1:pos:R:3:momenta:R:3:forces:R:3 R1=H R2=H R3=CH3 R4=CH3 leaving_group=Cl nucleophile=Cl rxn=sn2 config=rcc label=H_H_CH3_CH3_Cl_Cl_sn2_rcc conformation=0 reactant_id=H_H_CH3_CH3_Cl_none_-_r product_id=H_H_CH3_CH3_none_Cl_sn2_pc mp2_author_energy=-29302.391748605172 mp2_my_energy=0 hash=59123 address=T id=71 energy=-17370.038260129542 pbc="F F F"
C       11.78618569       2.49360439       7.77334457       0.44775834       1.04883601      -0.29223022      -0.16143121       1.35112163       0.84364243
C       12.56701943       2.43137860       6.51054912       0.58250148      -0.41829280       1.35876816       0.59928298      -0.04292048      -0.20355949
H       13.41816344       1.74248143       6.69794902       0.19679302      -0.09807205       0.06503163      -0.35459307       0.44801499      -0.57632384
F       12.48272626       4.54562201       8.04809056       1.56946573      -0.54082430       1.42690109      -0.16039150      -1.05439370      -0.03075297
Cl      10.85072333       0.79446532       7.74387808       0.91375262       0.52486733      -0.28262601      -0.70857401      -1.36141533      -0.09999798
H       10.99477497       3.17878904       7.82956875       0.01740847       0.15120663      -0.03698670      -0.78365264       0.63596711      -0.21666314
H       12.18662848       2.32246868       8.74901189      -0.12907891      -0.10946913       0.02655329       0.96533235       0.50227006      -0.04930104
H       12.88926931       3.46642742       6.32015863       0.15186836      -0.05727736      -0.01159436       0.12638225      -0.57096633       0.15498632
H       11.92683130       2.06033724       5.68990606      -0.20977728       0.19417969       0.09273490       0.47764486       0.09232205       0.17796971
9
Properties=species:S:1:pos:R:3:momenta:R:3:forces:R:3 R1=H R2=H R3=CH3 R4=CH3 leaving_group=Cl nucleophile=Cl rxn=sn2 config=rcc label=H_H_CH3_CH3_Cl_Cl_sn2_rcc conformation=0 reactant_id=H_H_CH3_CH3_Cl_none_-_r product_id=H_H_CH3_CH3_none_Cl_sn2_pc mp2_author_energy=-29302.391748605172 mp2_my_energy=0 hash=59123 address=T id=71 energy=-17370.189696870926 pbc="F F F"
C       12.61020445       2.64242583       8.27589607       0.19994696       0.18982756      -0.01118791       0.08172965       1.47214526       1.66607007
C       13.81558790       2.26557569       7.51080522       0.43265592      -0.37282771      -0.21309193       0.79184199      -0.83555784      -0.96392964
H       14.15458564       1.21821585       7.68896158      -0.15613419      -0.16520776      -0.03917333      -0.47799892       0.59201657      -0.10451133
F       13.71567902       4.24705732       9.28536336       0.97619568      -0.01559012       1.52930025      -0.88047041      -1.44482609      -0.94502586
Cl      11.14018411       1.32395583       7.65995076       0.86502698       0.60507807       0.24589069       0.47254188      -0.01458163      -0.29695629
H       12.12075274       3.54924891       8.00764987      -0.15414774      -0.00799262      -0.19761141      -0.04194989       0.33175869      -0.07871384
H       12.53185785       2.40136480       9.31112277      -0.20908155       0.21398541      -0.01186169       0.32372522       0.07932448       0.29770689
H       14.63290680       2.94036356       7.80658084      -0.02652861       0.00572299       0.16195295      -0.59393260      -0.01692467       0.02077863
H       13.58855798       2.38121260       6.43188411       0.17548107      -0.04002651      -0.07020446       0.32451308      -0.16335477       0.40458136
9
Properties=species:S:1:pos:R:3:momenta:R:3:forces:R:3 R1=H R2=H R3=CH3 R4=CH3 leaving_group=Cl nucleophile=Cl rxn=sn2 config=rcc label=H_H_CH3_CH3_Cl_Cl_sn2_rcc conformation=0 reactant_id=H_H_CH3_CH3_Cl_none_-_r product_id=H_H_CH3_CH3_none_Cl_sn2_pc mp2_author_energy=-29302.391748605172 mp2_my_energy=0 hash=59123 address=T id=71 energy=-17370.079694322074 pbc="F F F"
C       13.20274813       2.81451714       8.79826389       0.26760345      -0.02860193      -1.05432274       1.93771867       0.28996193      -0.96082200
C       14.39002738       1.88842252       8.34112555       0.29732965      -0.39387112       0.45886295      -0.55951849       0.76118598       0.88422184
H       14.04431786       0.84165128       8.32872062       0.05196415      -0.05226775      -0.00661340       0.30946309       0.32851551       0.20375364
F       14.57894222       3.66347699      10.24890357       0.84999558      -0.12584033       1.69583129      -0.45707565      -0.06810990      -0.48944114
Cl      11.81774816       2.04705539       7.65433069       1.05611475       1.24079717       0.49705635      -0.99602165      -0.20753405      -0.65286398
H       13.21354838       3.83434802       8.42561901      -0.06276962       0.13136604       0.05247682       0.39250069      -0.30960153       0.19321207
H       12.74032880       2.77377421       9.74441647       0.04431961      -0.05057496      -0.05967454       0.20586546      -0.61746873       0.70345281
H       15.20120713       2.09069159       9.06120525       0.11345541      -0.24778008       0.03325253      -0.42346730      -0.26424281      -0.37726260
H       14.72718653       2.13394225       7.31690856      -0.07416488       0.02621384       0.06903609      -0.40946483       0.08729360       0.49574936
9
Properties=species:S:1:pos:R:3:momenta:R:3:forces:R:3 R1=H R2=H R3=CH3 R4=CH3 leaving_group=Cl nucleophile=Cl rxn=sn2 config=rcc label=H_H_CH3_CH3_Cl_Cl_sn2_rcc conformation=0 reactant_id=H_H_CH3_CH3_Cl_none_-_r product_id=H_H_CH3_CH3_none_Cl_sn2_pc mp2_author_energy=-29302.391748605172 mp2_my_energy=0 hash=59123 address=T id=71 energy=-17370.03400464581 pbc="F F F"
C       14.17392966       2.89832712       9.37753973       0.60126717      -0.57349192       0.14631062      -2.40039603      -0.38234897      -1.12796803
C       14.77000125       1.56934350       9.09341097       0.47250044       0.43223386       0.82510661       1.44171834      -0.39342972       0.35424393
H       14.08599272       0.74168511       8.92398615      -0.21788206       0.20032529      -0.00489881      -0.39483960       0.37136413      -0.37459380
F       15.23644400       2.97089645      11.18531804       0.68856930      -0.71167547       0.93155855       1.01638232       0.32834294       1.36810218
Cl      12.63600658       2.86842605       7.73673815       1.80847831       1.55064825       0.21445333       0.56814135       0.09180984       0.28292329
H       14.57202946       3.84526827       9.06129863       0.20373107      -0.10985486       0.26744011       0.29943125      -0.26892606      -0.10267231
H       13.40576717       2.92834480      10.11756132      -0.13260903       0.19160253      -0.01399580      -0.17945448       0.16962751       0.08615901
H       15.33730956       1.30129763       9.99759942       0.11761021      -0.17560115      -0.11402234      -0.16581502       0.29760898      -0.21736728
H       15.50142627       1.65632034       8.28946022      -0.10335865      -0.12913406       0.02674499      -0.18516811      -0.21404865      -0.26882700
9
Properties=species:S:1:pos:R:3:momenta:R:3:forces:R:3 R1=H R2=H R3=CH3 R4=CH3 leaving_group=Cl nucleophile=Cl rxn=sn2 config=rcc label=H_H_CH3_CH3_Cl_Cl_sn2_rcc conformation=0 reactant_id=H_H_CH3_CH3_Cl_none_-_r product_id=H_H_CH3_CH3_none_Cl_sn2_pc mp2_author_energy=-29302.391748605172 mp2_my_energy=0 hash=59123 address=T id=71 energy=-17370.14228173956 pbc="F F F"
C       14.92250831       2.87277108       9.92339760      -0.07387411       0.75199339       0.84345232      -0.96819936       1.21775308      -1.54207094
C       14.68022724       1.44728309       9.60816378      -0.25981473       0.05047814       0.00624320      -0.71314067      -0.39718791       0.98417159
H       13.59973130       1.33260769       9.63227983      -0.08402869      -0.10100840       0.20577338      -0.13393698      -0.47770652      -0.29155727
F       15.66765585       2.25164177      11.79673596       0.72754276      -0.96136384       0.36731376       1.00625796      -0.57200282       2.18906955
Cl      14.10061163       3.70193699       8.25939110       2.41300991       0.44862418       0.16536618       0.00276402       0.39811941      -0.21477471
H       15.92724403       3.19222045       9.85618290      -0.06326249       0.24456284       0.14481008       0.69547935       0.45539069      -0.13447128
H       14.37548970       3.37156547      10.72298279       0.03196523       0.00171226       0.12187246       0.00717238      -0.42956356      -0.68570140