9
Properties=species:S:1:pos:R:3:momenta:R:3:forces:R:3 R1=H R2=H R3=CH3 R4=CH3 leaving_group=Cl nucleophile=Cl rxn=sn2 config=rcc label=H_H_CH3_CH3_Cl_Cl_sn2_rcc conformation=0 reactant_id=H_H_CH3_CH3_Cl_none_-_r product_id=H_H_CH3_CH3_none_Cl_sn2_pc mp2_author_energy=-29302.391748605172 mp2_my_energy=0 hash=59123 address=T id=71 energy=-17370.412368016237 pbc="F F F"
C        0.12542541       0.11270554      -0.00029240       0.56048483       0.08973772      -0.25130578      -0.09214561       1.11788396      -0.00082481
C        1.62503867       0.00847468       0.00156754      -1.08051585       0.58195183      -0.53613201      -0.06338950      -0.85342640       0.00215309
H        1.99473018      -0.50605055       0.89354482       0.05809833       0.00495984       0.10562662       0.00320508       0.00300841       0.00517082
F        0.89788639       2.64149152      -0.00442372      -0.20263278       0.82640969      -0.47973658      -0.23271315      -0.10403772      -0.00076135
Cl      -0.69504884      -1.53494042       0.00509220      -0.24870531       3.44397864       0.68746776       0.38207948      -0.16174994      -0.00050876
H       -0.22306082       0.64592326      -0.87549887      -0.01350344       0.11098870       0.16873832      -0.00302890      -0.00293595      -0.00472561
H       -0.22431889       0.65275656       0.87018381      -0.19446973       0.17002698      -0.16805703      -0.00396382      -0.00350204       0.00469305
H        1.88822962       1.08069343      -0.00059746       0.27771369      -0.16150616       0.25357074       0.00778691       0.00253743      -0.00033365
H        1.99700981      -0.51031959      -0.88698835      -0.11480336       0.27021051      -0.10579624       0.00216950       0.00222225      -0.00486279
9
Properties=species:S:1:pos:R:3:momenta:R:3:forces:R:3 R1=H R2=H R3=CH3 R4=CH3 leaving_group=Cl nucleophile=Cl rxn=sn2 config=rcc label=H_H_CH3_CH3_Cl_Cl_sn2_rcc conformation=0 reactant_id=H_H_CH3_CH3_Cl_none_-_r product_id=H_H_CH3_CH3_none_Cl_sn2_pc mp2_author_energy=-29302.391748605172 mp2_my_energy=0 hash=59123 address=T id=71 energy=-17370.32306433039 pbc="F F F"
C       -0.09396147       1.70380896      -0.10606472      -0.12969621       0.77437435       0.25565417       0.31437469       0.43955459      -0.74426756
C        1.26588714       1.19481662      -0.52726058      -0.18179519       0.76425787      -0.05741805       0.51703928      -0.05744922      -0.90329499
H        1.73864517       0.46832700       0.12660656       0.01548124       0.13437357      -0.23527910      -0.23135376       0.03167011       0.58466280
F        0.96508098       4.10539295      -0.55746573       0.47207281       0.77993542      -0.55432379      -0.43630653      -1.24172210       0.22211161
Cl      -1.15896883       0.20724355       0.35588974      -0.70399484       1.95521772       0.22727417       0.63985160       0.70350633      -0.17232084
H       -0.60840825       2.21625567      -0.91466807      -0.21991972      -0.08026000      -0.01515350       0.14095328      -0.14971080       0.07938272
H       -0.01981789       2.40416701       0.70502199      -0.04798487      -0.02653950       0.15675483      -0.07603632      -0.06333370       0.44367904
H        1.87836513       2.10936998      -0.57896547      -0.12733938       0.21256038      -0.15639808      -0.33092077      -0.05039513       0.04465752
H        1.31010242       0.71581294      -1.53013259       0.11338959      -0.00438920       0.10373871      -0.53760146       0.38787991       0.44538969
9
Properties=species:S:1:pos:R:3:momenta:R:3:forces:R:3 R1=H R2=H R3=CH3 R4=CH3 leaving_group=Cl nucleophile=Cl rxn=sn2 config=rcc label=H_H_CH3_CH3_Cl_Cl_sn2_rcc conformation=0 reactant_id=H_H_CH3_CH3_Cl_none_-_r product_id=H_H_CH3_CH3_none_Cl_sn2_pc mp2_author_energy=-29302.391748605172 mp2_my_energy=0 hash=59123 address=T id=71 energy=-17370.368887612865 pbc="F F F"
C       -0.29615320       2.97382217      -0.12758308       0.00165000       0.60343730       0.15689263       0.11238448      -0.16356692       0.19348098
C        0.74631475       2.18339467      -0.86855438       0.40178591       0.05266784      -0.51899748       0.54793434       0.00998846       0.39059603
H        1.42872296       1.68868062      -0.15018425      -0.03127673       0.12776624       0.06679882      -0.36988702      -0.00198484      -0.46531928
F        1.00497527       5.08671449      -0.97396976      -0.20801349       1.09547939      -0.20553596       0.33068428       0.40639645      -0.22281825
Cl      -1.40429722       1.67233099       0.55527451      -1.05364048       1.72325084       0.57420160      -0.20167353       0.25691031       0.20050378
H       -0.81842882       3.65380753      -0.80976653       0.12345639       0.03580578      -0.08372942      -0.04564285      -0.30595055       0.44681048
H        0.17696115       3.56678397       0.67965769       0.26517308       0.03249372      -0.20493882      -0.57054643      -0.42396104      -0.53220766
H        1.29052217       2.92657656      -1.42424772       0.03213980       0.06655550       0.01898472       0.37322565       0.55107442      -0.07697359
H        0.32205901       1.47295853      -1.57002223      -0.19992606      -0.01387707      -0.03087164      -0.17647892      -0.32890629       0.06592752
9
Properties=species:S:1:pos:R:3:momenta:R:3:forces:R:3 R1=H R2=H R3=CH3 R4=CH3 leaving_group=Cl nucleophile=Cl rxn=sn2 config=rcc label=H_H_CH3_CH3_Cl_Cl_sn2_rcc conformation=0 reactant_id=H_H_CH3_CH3_Cl_none_-_r product_id=H_H_CH3_CH3_none_Cl_sn2_pc mp2_author_energy=-29302.391748605172 mp2_my_energy=0 hash=59123 address=T id=71 energy=-17370.360610343643 pbc="F F F"
C       -0.52134369       4.41179530      -0.20940773      -0.19147757       1.77389200       0.33669961      -0.06889781      -0.91929281       0.85135979
C        0.14748342       3.47336608      -1.15867361      -0.67163685       0.51346030      -0.01303154       0.02985341      -0.34359389       0.13439706
H        0.59070732       2.64664032      -0.57786490      -0.24540064      -0.16120252       0.01010973       0.04218274       0.13372890      -0.51077303
F        1.01520293       6.06657215      -1.46565183       0.13072461       0.53344857      -0.60442379       0.55844730       0.77432444      -0.44201626
Cl      -1.65032849       3.32668601       0.77268848       0.01720142       1.86553920      -0.12356409      -0.66637412      -0.15347240       0.26180003
H       -1.09977085       5.14710297      -0.73608768       0.05906497       0.07309411       0.06527320      -0.04496911       0.43680469       0.20202619
H        0.16008080       4.80373476       0.53637354      -0.02443489       0.24150633      -0.10897284      -0.08421626       0.46702290      -0.39539456
H        0.87322693       4.13521578      -1.65641871      -0.08764221       0.17266372       0.11248903      -0.04997559      -0.17832734      -0.00137347
H       -0.61845381       3.09985918      -1.84588448       0.10879144       0.02629277       0.01798292       0.28394943      -0.21719450      -0.10002575
9
Properties=species:S:1:pos:R:3:momenta:R:3:forces:R:3 R1=H R2=H R3=CH3 R4=CH3 leaving_group=Cl nucleophile=Cl rxn=sn2 config=rcc label=H_H_CH3_CH3_Cl_Cl_sn2_rcc conformation=0 reactant_id=H_H_CH3_CH3_Cl_none_-_r product_id=H_H_CH3_CH3_none_Cl_sn2_pc mp2_author_energy=-29302.391748605172 mp2_my_energy=0 hash=59123 address=T id=71 energy=-17370.33816615512 pbc="F F F"
C       -0.71783069       5.78201508      -0.42531369      -0.19105869       0.18635355      -0.59894512       0.33517445       0.80744206       0.23156426
C       -0.60031036       4.73327135      -1.49386701      -0.73597184       0.44185856      -0.08015146      -1.19020762       0.64450669      -0.11752884
H       -0.24266832       3.79576491      -1.10665576       0.16377404       0.05210195       0.10579926       0.17809959      -0.50904428       0.19864652
F        0.96351000       7.15191542      -1.85908215       0.17803621       1.42685297      -0.18279800      -0.79380806      -0.77600535       0.55008849
Cl      -1.86067826       5.17683275       1.00299772      -0.13119482       2.99471474       0.12032414       0.17479360      -0.19598354      -0.71400205
H       -1.16868012       6.70854175      -0.76015748       0.23954359       0.07228181       0.10504042       0.17460040      -0.12942669      -0.07831226
H        0.21391617       5.98301699       0.07286690      -0.17852976       0.10877040       0.13168697       0.19721711       0.11429364      -0.12465235
H        0.15777241       5.24645479      -2.10171174      -0.11942193      -0.11113172      -0.11792321      -0.08685787      -0.08227391      -0.33971958
H       -1.58050900       4.58280731      -2.02800764      -0.17232813       0.10268367       0.19514232       1.01098841       0.12649138       0.39391581
9
Properties=species:S:1:pos:R:3:momenta:R:3:forces:R:3 R1=H R2=H R3=CH3 R4=CH3 leaving_group=Cl nucleophile=Cl rxn=sn2 config=rcc label=H_H_CH3_CH3_Cl_Cl_sn2_rcc conformation=0 reactant_id=H_H_CH3_CH3_Cl_none_-_r product_id=H_H_CH3_CH3_none_Cl_sn2_pc mp2_author_energy=-29302.391748605172 mp2_my_energy=0 hash=59123 address=T id=71 energy=-17370.303764770837 pbc="F F F"
C       -0.86825852       7.36340633      -0.43752970      -0.53905709       0.44140472      -0.14811429      -1.01033377      -0.56706526      -1.07086964
C       -1.32539057       6.38222158      -1.52193123       0.86105308       1.29662989      -0.77700045       0.09079523       0.66328054      -0.11180692
H       -0.97348989       5.38465544      -1.32804291      -0.11051586       0.17575934      -0.09111522       0.12808747      -0.54514277       0.34691866
F        0.72743179       8.00358945      -2.31408964      -0.81932501       0.21369507      -0.05983640       0.19269748       0.18755094       0.02016870
Cl      -2.02561706       7.03950272       1.05076432      -0.38286403       3.28181510       1.11414639       0.30889302       0.23204062      -0.14080108
H       -0.89175313       8.38762093      -0.78177273       0.07192381       0.04972085       0.03945124      -0.49262551       0.10047337       0.20033317
H        0.13676665       7.19070270      -0.13787888      -0.02693468      -0.06448605      -0.19618457       0.59370213      -0.38276065       0.37160072
H       -0.74945456       6.77521045      -2.37835876      -0.00353456       0.14324017      -0.11146331      -0.17726534      -0.07129770       0.07339150
H       -2.40941895       6.32877152      -1.71959040      -0.03377914      -0.06347296      -0.10390015       0.36604927       0.38292091       0.31106489
9
Properties=species:S:1:pos:R:3:momenta:R:3:forces:R:3 R1=H R2=H R3=CH3 R4=CH3 leaving_group=Cl nucleophile=Cl rxn=sn2 config=rcc label=H_H_CH3_CH3_Cl_Cl_sn2_rcc conformation=0 reactant_id=H_H_CH3_CH3_Cl_none_-_r product_id=H_H_CH3_CH3_none_Cl_sn2_pc mp2_author_energy=-29302.391748605172 mp2_my_energy=0 hash=59123 address=T id=71 energy=-17370.193362640915 pbc="F F F"
C       -1.12219082       8.72680857      -0.61114230      -0.00624495       0.90953664       0.27982030      -0.62570888       0.61436267      -0.01606836
C       -2.09748269       7.97389404      -1.45043552      -0.78191035       0.37652120      -0.32974005       0.78551859      -1.47722739      -0.45281724
H       -2.20826123       6.97163503      -0.97295431      -0.11657077       0.25246341       0.00062187      -0.62012480       0.67684422      -0.30450411
F        0.46807029       8.85118757      -2.52783768      -0.12504141       0.67410740      -0.32329640       0.50665632      -0.04638030      -0.79836722
Cl      -2.06823575       8.82574398       0.98988593       0.22153674       2.56125387      -0.03354738      -0.27757717       0.16959791       1.27026635
H       -0.96280527       9.74634081      -0.94242916       0.01096175       0.16980637       0.04708303       0.22115044      -0.17769288      -0.00269928
H       -0.19577906       8.21239347      -0.46064507       0.04682566       0.20100000       0.24341996       0.35236269      -0.05650480       0.12698821
H       -1.66142053       7.77669555      -2.43460859      -0.05840446      -0.12231751      -0.00760389       0.18377378       0.49562004       0.14885858
H       -3.00865661       8.54425248      -1.54307271      -0.12384638       0.17160563      -0.19366982      -0.52605097      -0.19861947       0.02834308
9
Properties=species:S:1:pos:R:3:momenta:R:3:forces:R:3 R1=H R2=H R3=CH3 R4=CH3 leaving_group=Cl nucleophile=Cl rxn=sn2 config=rcc label=H_H_CH3_CH3_Cl_Cl_sn2_rcc conformation=0 reactant_id=H_H_CH3_CH3_Cl_none_-_r product_id=H_H_CH3_CH3_none_Cl_sn2_pc mp2_author_energy=-29302.391748605172 mp2_my_energy=0 hash=59123 address=T id=71 energy=-17370.179986531544 pbc="F F F"
C       -1.31285174       9.96017696      -0.68585007       0.38686395       0.64542101       0.08591967      -0.61681709      -0.51050444      -1.07863463
C       -2.41517297       9.39060973      -1.63384199       0.05731960       0.57376442       0.12764504       0.09761618       0.19196600       1.66421115
H       -3.04984427       8.58233047      -1.16762479      -0.19220600       0.21724121       0.16264591       0.99975989       0.64368397      -0.35414206
F        0.00643825       9.45519651      -2.73835342      -0.30788972       0.32948555      -0.46972299       0.10055034       0.13729700       0.22308715
Cl      -2.13960726      10.36378103       1.02710807      -0.62427424       1.69159723      -0.62018504      -0.44727399       0.06940977       0.05174847
H       -0.90345828      10.92555479      -0.99306216       0.13829613       0.15007017       0.11064880      -0.08929391      -0.63151044      -0.10067290
H       -0.57694604       9.23285298      -0.38927451       0.06751846       0.12048020       0.15023383       0.18314599       0.01736086      -0.36287471
H       -1.79130480       9.10516115      -2.49218365      -0.10457757      -0.00987795      -0.09105686      -0.03622165      -0.22907549       0.02717245
H       -3.09314893      10.18777028      -1.91280291      -0.10180922       0.07281928       0.31256234      -0.19146577       0.31137276      -0.06989491
9
Properties=species:S:1:pos:R:3:momenta:R:3:forces:R:3 R1=H R2=H R3=CH3 R4=CH3 leaving_group=Cl nucleophile=Cl rxn=sn2 config=rcc label=H_H_CH3_CH3_Cl_Cl_sn2_rcc conformation=0 reactant_id=H_H_CH3_CH3_Cl_none_-_r product_id=H_H_CH3_CH3_none_Cl_sn2_pc mp2_author_energy=-29302.391748605172 mp2_my_energy=0 hash=59123 address=T id=71 energy=-17370.222757381536 pbc="F F F"
C       -1.59412223      11.12932206      -0.80040258      -0.28713889       0.14289409      -0.21842855       1.09813090       0.67594540      -0.34766390
C       -2.81246634      10.89434708      -1.64225065      -0.77433781       0.41515065      -1.57184836       0.10850131      -0.81318160       1.37014101
H       -3.40345527      10.12448987      -1.14730874      -0.06196736      -0.15991486      -0.09374229      -0.30651888      -0.06437412      -0.02062352
F       -0.48650707      10.18579881      -2.77356629      -0.72668156       1.07009418       0.97239429       0.25569403      -0.13877136      -0.14676289
Cl      -2.14650159      11.94178317       0.90655050       1.07526537       2.70198265       0.55131337      -0.40578532       0.00405848       0.04475843
H       -0.88487166      11.86185291      -1.20034729       0.09235712       0.09351054       0.10908472      -0.45398559      -0.39610826       0.07587233
H       -1.05256791      10.24441469      -0.48940579      -0.05805060       0.10514509       0.11146216      -0.25899636       0.01467542      -0.22180516
H       -2.33526434      10.47096625      -2.52089993      -0.07466179       0.10665514      -0.11334425       0.08170801       0.10951930      -0.55083514
H       -3.43130836      11.75878117      -1.79003051       0.03227462      -0.11548473      -0.01292005      -0.11874809       0.60823674      -0.20308116
9
Properties=species:S:1:pos:R:3:momenta:R:3:forces:R:3 R1=H R2=H R3=CH3 R4=CH3 leaving_group=Cl nucleophile=Cl rxn=sn2 config=rcc label=H_H_CH3_CH3_Cl_Cl_sn2_rcc conformation=0 reactant_id=H_H_CH3_CH3_Cl_none_-_r product_id=H_H_CH3_CH3_none_Cl_sn2_pc mp2_author_energy=-29302.391748605172 mp2_my_energy=0 hash=59123 address=T id=71 energy=-17369.957140985545 pbc="F F F"
C       -1.83120926      12.18122124      -0.99090749       0.32095216       0.20518718       0.28661314      -0.56827065       0.84759600       0.31528593
C       -3.23319840      12.46122998      -1.53042876      -0.09463607       1.55151390       0.71593352       1.45198110       0.03939479      -0.67526939
H       -3.98680055      11.98029594      -0.90438952      -0.22217770       0.02966985      -0.02832297       0.09318221      -0.07651800      -0.25361299
F       -0.89923955      10.81947620      -2.75775380      -0.29269479       0.57037764      -0.10818109      -0.20830028      -0.06115824      -0.15125269
Cl      -2.16392990      13.41427428       0.75124784      -0.50190093       2.39248519      -1.50000713       0.43875877      -0.19649333       0.34263892
H       -0.97691572      12.67224844      -1.47652665       0.07587138       0.08851354       0.07660699      -0.73070002      -0.24933113       0.27814642
H       -1.63084419      11.13285160      -0.81208090      -0.01425056       0.12302282      -0.11767906       0.14344578       0.15452583       0.19536984
H       -3.17543368      12.08765841      -2.55097809      -0.15710443       0.22519849       0.17517168      -0.53385715      -0.09189680       0.08804844
H       -3.40427675      13.54684441      -1.51972386      -0.03033255      -0.08343486       0.18853199      -0.08623975      -0.36611913      -0.13935448
9
Properties=species:S:1:pos:R:3:momenta:R:3:forces:R:3 R1=H R2=H R3=CH3 R4=CH3 leaving_group=Cl nucleophile=Cl rxn=sn2 config=rcc label=H_H_CH3_CH3_Cl_Cl_sn2_rcc conformation=0 reactant_id=H_H_CH3_CH3_Cl_none_-_r product_id=H_H_CH3_CH3_none_Cl_sn2_pc mp2_author_energy=-29302.391748605172 mp2_my_energy=0 hash=59123 address=T id=71 energy=-17370.038836858745 pbc="F F F"
C       -2.16257988      13.41548905      -1.04276207      -0.25697036       1.29249425       0.12522839       0.58430204       0.99312102       0.72828654
C       -3.42652847      13.73165513      -1.77038025       0.54539035      -0.23653097      -0.65887373      -0.07451600       0.66600037      -0.52594882
H       -4.31683218      13.39050519      -1.25239225      -0.04500547      -0.14097925      -0.00417942      -0.11819747      -0.04927773       0.24179701
F       -1.63164652      11.69950570      -2.58720513      -1.11563205       0.68418171       0.13892507      -0.02538262      -0.49291466      -0.51542263
Cl      -2.09147081      14.89864161       0.59845014       0.23940408       1.90342356       0.25969934      -0.33788488      -0.33038080      -0.35095412
H       -1.25467226      13.79628131      -1.50392995       0.00122887       0.02942044      -0.11758504      -0.25750357      -0.29759158       0.12021852
H       -2.05205505      12.45957752      -0.52757958      -0.07231432       0.26388324       0.10561041      -0.24058337       0.57763196      -0.32266789
H       -3.29224938      13.12212450      -2.67074117       0.02160552       0.19748664      -0.14370999       0.01867957       0.01883991       0.09297423
H       -3.56857619      14.81077652      -2.06678975      -0.01560703      -0.10691938       0.05775120       0.45108630      -1.08542849       0.53171715
9
Properties=species:S:1:pos:R:3:momenta:R:3:forces:R:3 R1=H R2=H R3=CH3 R4=CH3 leaving_group=Cl nucleophile=Cl rxn=sn2 config=rcc label=H_H_CH3_CH3_Cl_Cl_sn2_rcc conformation=0 reactant_id=H_H_CH3_CH3_Cl_none_-_r product_id=H_H_CH3_CH3_none_Cl_sn2_pc mp2_author_energy=-29302.391748605172 mp2_my_energy=0 hash=59123 address=T id=71 energy=-17369.976576530793 pbc="F F F"
C       -2.22716504      14.58149675      -1.22351838       0.28013720       0.66759690       0.36351386       0.28414475      -0.96682502       1.23267087
C       -3.46455020      15.03901455      -1.83638056       0.02176973       1.72078552       0.30232670       0.05558036       0.46445967      -1.51043573
H       -4.22286526      15.10848932      -1.08681723      -0.17214217       0.09741841       0.14227901      -0.57469512       0.41938353       0.45184210
F       -2.41943216      12.49853689      -2.39400260      -0.64615969      -0.51601398      -0.26809394      -0.00286540       0.47706797       0.13317804
Cl      -2.13245977      16.28029737       0.41186608      -0.58105323       2.10051313      -0.87142592       0.06473322      -0.32621641      -0.45123675
H       -1.27041753      14.83200642      -1.63700985       0.01326618       0.18464231      -0.11995703       0.13358545      -0.01851061      -0.00624368
H       -2.31148095      13.68174120      -0.61075471       0.12109725       0.00947109      -0.07288252       0.33604788       0.43594420      -0.29361541
H       -3.72198640      14.20822902      -2.50950148       0.14538767       0.09081069       0.08997368       0.20135772       0.32715859      -0.04330151
H       -3.29098577      16.00338934      -2.38011434       0.00876449       0.14955094       0.15940570      -0.49788887      -0.81246192       0.48714207
9
Properties=species:S:1:pos:R:3:momenta:R:3:forces:R:3 R1=H R2=H R3=CH3 R4=CH3 leaving_group=Cl nucleophile=Cl rxn=sn2 config=rcc label=H_H_CH3_CH3_Cl_Cl_sn2_rcc conformation=0 reactant_id=H_H_CH3_CH3_Cl_none_-_r product_id=H_H_CH3_CH3_none_Cl_sn2_pc mp2_author_energy=-29302.391748605172 mp2_my_energy=0 hash=59123 address=T id=71 energy=-17369.875410507182 pbc="F F F"
C       -2.73464096      15.67418950      -1.01053304       0.38129332       1.04441207       0.15176884       0.04920330       1.67353673      -0.59989012
C       -3.66675373      16.43836752      -1.94244391      -0.34091843       0.34612436      -0.42215486       1.03956119      -0.54944590      -0.75086038
H       -4.53107304      16.76885095      -1.43019904      -0.02050866      -0.00654578      -0.09377795      -1.12490606      -0.02194762       0.68312517
F       -3.01886938      13.58608629      -2.10873708      -0.98329591       0.58253481       0.03753395      -0.33282913      -0.53241718      -0.45672428
Cl      -2.05227566      17.64289692       0.05424147       0.22155617       2.23763893       0.10213692       0.04969153      -0.05432516       0.25419854
H       -1.77113729      15.51478856      -1.47327351       0.05853497       0.07471565      -0.06135919       0.05355333      -0.02619983       0.29103988
H       -3.17343848      14.74644108      -0.67306633      -0.07201395       0.01591006       0.03758193       0.09385071       0.20306032       0.17153453
H       -3.87717553      15.66161302      -2.69056950       0.13508082      -0.09208964      -0.02577220      -0.06133130       0.43195454       0.09055410
H       -3.26918089      17.38043548      -2.39756388      -0.14634003       0.06639844       0.01356197       0.23320643      -1.12421589       0.31702257
9
Properties=species:S:1:pos:R:3:momenta:R:3:forces:R:3 R1=H R2=H R3=CH3 R4=CH3 leaving_group=Cl nucleophile=Cl rxn=sn2 config=rcc label=H_H_CH3_CH3_Cl_Cl_sn2_rcc conformation=0 reactant_id=H_H_CH3_CH3_Cl_none_-_r product_id=H_H_CH3_CH3_none_Cl_sn2_pc mp2_author_energy=-29302.391748605172 mp2_my_energy=0 hash=59123 address=T id=71 energy=-17369.893990573546 pbc="F F F"
C       -2.90234487      17.22470312      -1.09170539       0.10476466       1.30447432      -0.28444522       0.10058458       1.33288596       0.05639189
C       -3.76723088      17.64198251      -2.24708350      -0.07458786       1.01716122      -0.25674938       1.31430498      -0.80682427       0.10492827
H       -4.56557191      18.23430434      -1.87000292       0.07772436      -0.08596522      -0.14656100      -0.62898576       0.83086140      -0.08222450
F       -3.91580496      15.16492033      -1.64669042      -0.91634102       1.25277906       1.13548677      -0.54727245      -1.32006528      -0.29469367
Cl      -2.06745594      19.07683811      -0.25926889      -0.34017734       1.79526572      -0.25632805      -0.21325588      -0.30089346      -0.36518930
H       -1.99731386      16.70553528      -1.33994531       0.10623680       0.09863302      -0.22523933       0.25364402      -0.00011995      -0.01279569
H       -3.46501089      16.72723643      -0.30875715       0.14574939      -0.29682014      -0.12440977       0.26018139       0.28263396      -0.03869424
H       -4.09795009      16.56174044      -2.32040443      -0.01678337       0.13904292      -0.21533569      -0.17424318       0.03233843      -0.46215784
H       -3.25688976      17.98467106      -3.18081569      -0.01625352      -0.04744651       0.05769757      -0.36495769      -0.05081679       1.09443508
9
Properties=species:S:1:pos:R:3:momenta:R:3:forces:R:3 R1=H R2=H R3=CH3 R4=CH3 leaving_group=Cl nucleophile=Cl rxn=sn2 config=rcc label=H_H_CH3_CH3_Cl_Cl_sn2_rcc conformation=0 reactant_id=H_H_CH3_CH3_Cl_none_-_r product_id=H_H_CH3_CH3_none_Cl_sn2_pc mp2_author_energy=-29302.391748605172 mp2_my_energy=0 hash=59123 address=T id=71 energy=-17369.926538094205 pbc="F F F"
C       -3.23429250      18.67591501      -1.09035622      -0.19746182       1.43825308      -0.71087045      -0.48131075       0.26351791      -0.58108399
C       -3.79496891      19.11601809      -2.41978508       0.47755191       1.04588677       0.58519779       0.86808458      -2.40713559      -0.59499268
H       -4.20783716      20.09351432      -2.45604256       0.15469564      -0.06320073      -0.04760472      -0.17330776       0.98125279       0.16929637
F       -4.66617313      16.74247817      -1.09926510       0.10158815       2.07919566       0.84858775       0.40915683       0.50614202      -0.18510294
Cl      -2.13945242      20.43144449      -0.68245449      -1.16583655       0.83147106      -1.23837268       0.33067279       0.66091234       0.42944608
H       -2.32858770      18.10973944      -1.15140457      -0.19496144      -0.13660180       0.21446103      -0.28575806      -0.67171552       0.05354030
H       -3.93275588      18.37566214      -0.33648407      -0.13915394      -0.00625407       0.01618725      -0.02468017       0.05135610       0.29740798
H       -4.56464224      18.36551680      -2.66465304      -0.03174975       0.28554839       0.03218241       0.37950680       0.17305478       0.10817406
H       -2.92840404      18.99193128      -3.12327934      -0.03797009       0.27991965      -0.05086407      -1.02236426       0.44261517       0.30331482
9
Properties=species:S:1:pos:R:3:momenta:R:3:forces:R:3 R1=H R2=H R3=CH3 R4=CH3 leaving_group=Cl nucleophile=Cl rxn=sn2 config=rcc label=H_H_CH3_CH3_Cl_Cl_sn2_rcc conformation=0 reactant_id=H_H_CH3_CH3_Cl_none_-_r product_id=H_H_CH3_CH3_none_Cl_sn2_pc mp2_author_energy=-29302.391748605172 mp2_my_energy=0 hash=59123 address=T id=71 energy=-17369.91350598066 pbc="F F F"
C       -3.78662580      20.25377279      -1.35790391       0.01636539       0.69235053      -0.93899223      -1.07043701      -0.78966218       0.48026080
C       -3.84120065      20.19485327      -2.86145699      -0.16023199       0.40488088       0.40118813       0.03507779       0.96838950       0.28333658
H       -4.81131040      20.49992862      -3.30618275      -0.07183366      -0.01685307       0.22374941       0.43500148      -0.13124077       0.69248897
F       -5.46993486      18.85890662      -0.43163497      -0.62695137       1.61577655       0.56669222       0.33314140       0.24756118      -0.69030465
Cl      -2.15314025      22.01731632      -0.98178998       0.29484645       2.55613047      -0.19967677       0.45423535       0.76336482      -0.15129916
H       -2.93762150      19.82180231      -0.84622616      -0.15274308       0.15604630       0.09504559       0.26215878      -0.10594250      -0.55452201
H       -4.63945041      19.61886882      -0.92828258      -0.30581897      -0.16919876       0.03745727      -0.30808703       0.29108767      -0.00599923
H       -3.69169849      19.15611426      -3.06816449       0.07857046       0.12225205      -0.35653051       0.18176843      -0.74441600      -0.34599910
H       -3.05759310      20.82715889      -3.32193151      -0.03339016      -0.00873777      -0.15552679      -0.32285920      -0.49914171       0.29203780
9
Properties=species:S:1:pos:R:3:momenta:R:3:forces:R:3 R1=H R2=H R3=CH3 R4=CH3 leaving_group=Cl nucleophile=Cl rxn=sn2 config=rcc label=H_H_CH3_CH3_Cl_Cl_sn2_rcc conformation=0 reactant_id=H_H_CH3_CH3_Cl_none_-_r product_id=H_H_CH3_CH3_none_Cl_sn2_pc mp2_author_energy=-29302.391748605172 mp2_my_energy=0 hash=59123 address=T id=71 energy=-17369.969763263765 pbc="F F F"
C       -3.95160809      21.42941235      -1.26610991       0.16840276       0.74714016      -0.10326524       0.20204058       0.65747128       1.44977425
C       -4.12188560      21.31235955      -2.70394063       0.17234212       0.70080175       0.14637018      -0.26630843       0.48826845      -0.47691199
H       -3.24680103      20.86748315      -3.15871229      -0.04385291      -0.19274341      -0.24221944       0.10203404      -0.11409909      -0.33773414
F       -5.90314749      20.54120601      -0.26966054      -0.35818228       1.73571924       0.06385751       0.15671974       0.17140171      -0.42375830
Cl      -2.29121539      23.30543039      -1.36704700      -0.92214163       1.43378788      -0.44079482       0.09806450      -0.12272263      -0.14003052
H       -3.12616452      20.94782503      -0.75593178       0.20350957      -0.05660622      -0.17209017       0.09006772       0.00313824      -0.19408087
H       -4.94134533      21.18021754      -0.78783949      -0.05971791      -0.01095765       0.24869426      -0.36648071      -0.42687888       0.46187290