9
Properties=species:S:1:pos:R:3:momenta:R:3:forces:R:3 R1=H R2=H R3=CH3 R4=CH3 leaving_group=Cl nucleophile=Cl rxn=sn2 config=rcc label=H_H_CH3_CH3_Cl_Cl_sn2_rcc conformation=0 reactant_id=H_H_CH3_CH3_Cl_none_-_r product_id=H_H_CH3_CH3_none_Cl_sn2_pc mp2_author_energy=-29302.391748605172 mp2_my_energy=0 hash=59123 address=T id=71 energy=-17370.412368016237 pbc="F F F"
C        0.12542541       0.11270554      -0.00029240       0.64421332       0.09814659       0.12542897      -0.09214561       1.11788396      -0.00082481
C        1.62503867       0.00847468       0.00156754      -0.74732972       0.41379696       0.29943755      -0.06338950      -0.85342640       0.00215309
H        1.99473018      -0.50605055       0.89354482       0.05152537       0.13831612       0.09449852       0.00320508       0.00300841       0.00517082
F        0.89788639       2.64149152      -0.00442372      -0.63854623       0.58046402       0.14577358      -0.23271315      -0.10403772      -0.00076135
Cl      -0.69504884      -1.53494042       0.00509220      -0.57017237      -1.42482726      -0.61802989       0.38207948      -0.16174994      -0.00050876
H       -0.22306082       0.64592326      -0.87549887      -0.08054064      -0.07379630      -0.08480213      -0.00302890      -0.00293595      -0.00472561
H       -0.22431889       0.65275656       0.87018381      -0.33241617      -0.15611945       0.06367041      -0.00396382      -0.00350204       0.00469305
H        1.88822962       1.08069343      -0.00059746       0.07474056       0.04580523       0.00000398       0.00778691       0.00253743      -0.00033365
H        1.99700981      -0.51031959      -0.88698835       0.00638613      -0.24546936       0.21838802       0.00216950       0.00222225      -0.00486279
9
Properties=species:S:1:pos:R:3:momenta:R:3:forces:R:3 R1=H R2=H R3=CH3 R4=CH3 leaving_group=Cl nucleophile=Cl rxn=sn2 config=rcc label=H_H_CH3_CH3_Cl_Cl_sn2_rcc conformation=0 reactant_id=H_H_CH3_CH3_Cl_none_-_r product_id=H_H_CH3_CH3_none_Cl_sn2_pc mp2_author_energy=-29302.391748605172 mp2_my_energy=0 hash=59123 address=T id=71 energy=-17370.223693010335 pbc="F F F"
C       -0.52335267      -0.18284930       0.00253629      -0.37994763      -1.22033525      -0.15674207       0.74388361       1.24906478       0.18694185
C        0.04400300      -0.01961773       1.40805108      -1.16934664       0.48031286       1.06083719      -0.55743563       0.01288877       0.21020701
H       -0.68028968      -0.20344086       2.20235509      -0.25597901       0.16503667      -0.08796962      -0.47579751      -0.09946188      -0.23600376
F       -0.73109956       2.42755140       0.14314853      -1.44063484      -1.39812508       0.31186771      -0.05673176       0.61833926       0.09674576
Cl      -0.47465615      -1.92251794      -0.43763427       0.52987006       0.90825258      -0.67324430      -0.27525436      -0.63347979      -0.12526614
H        0.09252127       0.43642105      -0.69427576       0.08567228       0.01402363       0.11005878      -0.55478090      -0.86451555       0.49247019
H       -1.51004051       0.30616314      -0.00157283       0.00994836       0.02646279      -0.01030951       0.35577539      -0.65033669      -0.23954665
H        0.20308136       1.05694804       1.37741933      -0.06826890      -0.09653675      -0.14847117       0.34709532       0.28460434       0.25484312
H        0.89085750      -0.63392624       1.70118052      -0.11572021       0.02234800       0.02440631       0.47324584       0.08289675      -0.64039138
9
Properties=species:S:1:pos:R:3:momenta:R:3:forces:R:3 R1=H R2=H R3=CH3 R4=CH3 leaving_group=Cl nucleophile=Cl rxn=sn2 config=rcc label=H_H_CH3_CH3_Cl_Cl_sn2_rcc conformation=0 reactant_id=H_H_CH3_CH3_Cl_none_-_r product_id=H_H_CH3_CH3_none_Cl_sn2_pc mp2_author_energy=-29302.391748605172 mp2_my_energy=0 hash=59123 address=T id=71 energy=-17370.16458806969 pbc="F F F"
C       -1.12639275      -0.33670747       0.15164892      -0.14951009      -0.06255614      -0.25201775       0.00082674       1.16131793      -0.25331953
C       -2.22279801      -0.92942059       0.99105680      -1.27343241      -0.24721315      -0.48148475       0.43758206       1.75658806       0.36791341
H       -2.91408941      -1.51291389       0.38053537      -0.00737483      -0.24181619      -0.09277620      -0.01011081      -0.09506102       0.35416371
F       -2.41497172       1.98035022       0.54421507      -0.83238887      -1.70704307       0.21323209       0.99024049      -1.87633655      -0.20740039
Cl      -0.12124085      -1.90839037      -0.26310162      -0.07356160       1.35606379       0.77505329      -0.00368113       0.62959141      -0.26464539
H       -0.46404858       0.29135280       0.74985933      -0.10349810      -0.18252265       0.17493312      -0.25348387      -0.11107435      -0.27884060
H       -1.35269345       0.16515546      -0.79704715      -0.03409972       0.11818849       0.15877446      -0.23910600      -0.30551651       0.65649613
H       -2.66355172      -0.00369749       1.44984485      -0.24714057      -0.01905805      -0.17151779      -0.13230209      -0.72480832      -0.56708001
H       -1.65710928      -1.48304391       1.74389541      -0.15164319      -0.13933612       0.11671110      -0.78996539      -0.43470065       0.19271266
9
Properties=species:S:1:pos:R:3:momenta:R:3:forces:R:3 R1=H R2=H R3=CH3 R4=CH3 leaving_group=Cl nucleophile=Cl rxn=sn2 config=rcc label=H_H_CH3_CH3_Cl_Cl_sn2_rcc conformation=0 reactant_id=H_H_CH3_CH3_Cl_none_-_r product_id=H_H_CH3_CH3_none_Cl_sn2_pc mp2_author_energy=-29302.391748605172 mp2_my_energy=0 hash=59123 address=T id=71 energy=-17370.21188431436 pbc="F F F"
C       -2.01902651      -0.80181040       0.53941405      -1.01250302       0.41599483       0.37493490      -0.04883104      -0.85561210      -0.96959308
C       -2.89936581      -1.34092722      -0.60370559       0.55980968       0.47650262       0.07484899       0.84018552       0.13083999       0.29716533
H       -2.42641169      -1.26704467      -1.58283582       0.15976703       0.00991092       0.08841450       0.12996224       0.67795743      -0.04715360
F       -4.13158356       0.65894136       0.95949862      -1.26220357      -1.24912337      -0.16524718      -1.48149199       1.02316342       0.36720425
Cl      -0.36843116      -1.54283556       0.31931028      -0.56673593      -0.19761549      -0.01137259       1.22381124      -0.35996946      -0.20407246
H       -2.34692014      -1.15734977       1.49508067       0.00818393      -0.17925088      -0.12097126      -0.39820484      -0.05311386       0.31251783
H       -2.03482925       0.28673073       0.59039636      -0.17678882      -0.08509888       0.27431478       0.25089289      -0.33263483      -0.28760396
H       -3.78976406      -0.73449620      -0.47951500      -0.04353713      -0.14449534      -0.23921271      -0.37291343       0.13246932      -0.09899950
H       -3.10278408      -2.40136696      -0.54000052       0.12281600       0.08699299       0.06367454      -0.14341057      -0.36309990       0.63053520
9
Properties=species:S:1:pos:R:3:momenta:R:3:forces:R:3 R1=H R2=H R3=CH3 R4=CH3 leaving_group=Cl nucleophile=Cl rxn=sn2 config=rcc label=H_H_CH3_CH3_Cl_Cl_sn2_rcc conformation=0 reactant_id=H_H_CH3_CH3_Cl_none_-_r product_id=H_H_CH3_CH3_none_Cl_sn2_pc mp2_author_energy=-29302.391748605172 mp2_my_energy=0 hash=59123 address=T id=71 energy=-17370.04508852194 pbc="F F F"
C       -2.82181476      -1.26649630       0.64464798       0.20165972       0.02769099       0.23237190      -0.00546462       0.60477991       0.94360283
C       -3.14207895      -0.54072259      -0.60344060      -0.63150478       0.87258721      -0.27326073       1.60380820      -0.29925837      -1.44666133
H       -2.51893121       0.37274227      -0.61258495      -0.12560214       0.17804676      -0.10777286      -0.40138922      -0.20841488      -0.27219135
F       -5.45722893      -1.06569615       0.58111423      -0.26199716      -1.81213912      -0.46990286      -0.41697453      -0.10210192       0.24315250
Cl      -0.79754909      -1.36950443       0.72002728      -1.12470569      -0.21872078       0.87303621       0.03490059       0.14350324      -0.22475913
H       -3.02295933      -2.29936239       0.76266785      -0.05730423       0.11648253      -0.12545514      -0.56836822      -0.60146299      -0.20061865
H       -3.02785062      -0.70224109       1.53355365      -0.04301998      -0.15860973       0.17629670      -0.16209242      -0.01586660       0.31700364
H       -4.23334510      -0.34900938      -0.62466574      -0.06190149       0.11821617      -0.09004118       0.31663345      -0.32227882       0.36131435
H       -2.80769581      -1.21152516      -1.43754273      -0.07803408       0.02153806       0.11969434      -0.40105322       0.80110042       0.27915715
9
Properties=species:S:1:pos:R:3:momenta:R:3:forces:R:3 R1=H R2=H R3=CH3 R4=CH3 leaving_group=Cl nucleophile=Cl rxn=sn2 config=rcc label=H_H_CH3_CH3_Cl_Cl_sn2_rcc conformation=0 reactant_id=H_H_CH3_CH3_Cl_none_-_r product_id=H_H_CH3_CH3_none_Cl_sn2_pc mp2_author_energy=-29302.391748605172 mp2_my_energy=0 hash=59123 address=T id=71 energy=-17369.895370462702 pbc="F F F"
C       -3.65925870      -1.82770400       0.57919090      -0.30589715      -0.70150810      -0.09937035      -0.20424555       0.83579636      -1.84846990
C       -4.21028102      -0.44278628       0.51396224      -1.05427799      -0.14770639       0.20202291      -0.70384900      -0.15770996      -0.21549494
H       -4.00910667       0.09166158       1.41478509      -0.08219516      -0.01353804       0.07942349       0.29667930       0.29595426       0.68945142
F       -5.97037360      -2.62479312      -0.48848269      -0.60868182      -1.06395400      -1.07604741       0.49175783       0.30234279       0.34191095
Cl      -1.38878497      -0.99878545       1.10048565      -0.01146156       0.68713939       0.67501368       0.20539292       0.04094590       0.16331045
H       -3.17673989      -2.22051365      -0.29354157       0.08040851      -0.05832672       0.09077066       0.00998652      -0.25061032      -0.01282871
H       -3.64397894      -2.36227415       1.47790151      -0.06119401      -0.13413178       0.04272078       0.00796389      -0.46455723       0.98003780
H       -5.28150901      -0.56332758       0.42811754      -0.22544296       0.03752655       0.22833690      -0.41264632      -0.05405037      -0.12030954
H       -3.89136356       0.18368151      -0.32621373      -0.15543618       0.44488404       0.22920347       0.30896041      -0.54811143       0.02239248
9
Properties=species:S:1:pos:R:3:momenta:R:3:forces:R:3 R1=H R2=H R3=CH3 R4=CH3 leaving_group=Cl nucleophile=Cl rxn=sn2 config=rcc label=H_H_CH3_CH3_Cl_Cl_sn2_rcc conformation=0 reactant_id=H_H_CH3_CH3_Cl_none_-_r product_id=H_H_CH3_CH3_none_Cl_sn2_pc mp2_author_energy=-29302.391748605172 mp2_my_energy=0 hash=59123 address=T id=71 energy=-17370.1480431661 pbc="F F F"
C       -4.35133697      -1.82319307       0.14100067      -0.68364921       0.14293028       0.09448429       0.69671068       0.43295962       1.47631527
C       -4.92375423      -2.34895022       1.45303993       0.07913947      -0.74921979      -0.53274117       0.71282897      -0.37743813      -0.65923395
H       -4.19250178      -2.89391208       2.05500897       0.13385557       0.03845464       0.09599998       0.10802770       0.00288141      -0.34959874
F       -6.12798577      -3.17891814      -1.24785003      -0.71132161      -1.52270307      -1.00060308      -1.16297494      -0.90571188      -0.68553205
Cl      -2.41138619      -0.56295063       1.54615317      -0.92601654       0.81350745       1.49934664       0.27458176       0.18734193       0.20946390
H       -4.50209653      -0.78299985      -0.01414530      -0.25142844       0.14861565       0.45413610       0.08992882       0.70879472       0.08616595
H       -4.70364424      -2.36912791      -0.72686565      -0.36480169       0.22662697      -0.16144274       0.03355299      -0.43482507      -0.04389225
H       -5.72370062      -3.02034789       1.18270894       0.00114020      -0.12848748      -0.08840673      -0.42917521      -0.10948474      -0.09102020
H       -5.26074918      -1.55665246       2.09329955       0.22252320       0.05073993       0.02302413      -0.32348077       0.49548213       0.05733207
9
Properties=species:S:1:pos:R:3:momenta:R:3:forces:R:3 R1=H R2=H R3=CH3 R4=CH3 leaving_group=Cl nucleophile=Cl rxn=sn2 config=rcc label=H_H_CH3_CH3_Cl_Cl_sn2_rcc conformation=0 reactant_id=H_H_CH3_CH3_Cl_none_-_r product_id=H_H_CH3_CH3_none_Cl_sn2_pc mp2_author_energy=-29302.391748605172 mp2_my_energy=0 hash=59123 address=T id=71 energy=-17370.26894109457 pbc="F F F"
C       -5.33303507      -2.18306712       0.56169991      -1.25461124      -0.60794678       0.79445257       0.60753341       0.67711945       1.66772837
C       -4.18503493      -3.14472110       0.56798420       1.05538631      -0.64463396      -0.66840149      -0.76850947       0.64457470      -0.11078180
H       -3.48563467      -2.71359466       1.26198354      -0.04376734       0.11890875       0.11587222       0.91512902      -0.15124250      -0.38407352
F       -6.46049845      -3.61547398      -1.37562060      -0.00614760      -0.03777921       0.11232442      -0.33755637      -0.44929184      -0.54821870
Cl      -3.54946270      -0.37245900       2.02785937      -1.77743052       0.24017158       0.50601552      -0.25074437       0.02757367       0.01435212
H       -5.79486856      -1.99513932       1.53815732      -0.20435056       0.08574335       0.08425499       0.18185966       0.02142480      -0.44662559
H       -5.97817191      -2.22821838      -0.29321051      -0.10259032       0.17902971      -0.27348658      -0.49371821      -0.16281079      -0.45441129
H       -3.88271678      -3.26685333      -0.47239927       0.24604701      -0.09115009      -0.13463559       0.60475757      -0.05759174       0.28626882
H       -4.47967044      -4.08972213       0.98835261       0.02912666      -0.04864886      -0.22047287      -0.45875123      -0.54975577      -0.02423840
9
Properties=species:S:1:pos:R:3:momenta:R:3:forces:R:3 R1=H R2=H R3=CH3 R4=CH3 leaving_group=Cl nucleophile=Cl rxn=sn2 config=rcc label=H_H_CH3_CH3_Cl_Cl_sn2_rcc conformation=0 reactant_id=H_H_CH3_CH3_Cl_none_-_r product_id=H_H_CH3_CH3_none_Cl_sn2_pc mp2_author_energy=-29302.391748605172 mp2_my_energy=0 hash=59123 address=T id=71 energy=-17370.104204866082 pbc="F F F"
C       -5.74595929      -2.72532111       0.44519684       0.38937364      -0.60459979      -0.01584171       0.92795039      -0.06374409      -0.33630752
C       -4.53094384      -2.32773809      -0.31093368      -1.50815859       0.20496937       0.41397828      -0.11028698       0.20723130       0.16899294
H       -4.35810464      -1.38318473       0.17390994      -0.22992144      -0.06449827      -0.13119620       1.12395621       0.29171958      -0.03107794
F       -6.45114830      -4.58485819      -1.32611099       0.72831013      -0.24692355      -0.18313264      -0.12576898      -0.66363059      -0.78571892
Cl      -4.83736544      -0.61697897       2.67205485      -1.55393669      -0.44008597       0.12551911      -0.26244358      -0.52087630      -0.55430161
H       -6.07786975      -2.31404980       1.34481356      -0.11138815      -0.16325574       0.02272480      -0.03851253       0.72877742       1.00038475
H       -6.24799249      -3.56941930      -0.02232995      -0.02495264      -0.01561437       0.04525676      -0.66173578      -0.43342825       0.13082977
H       -4.71590907      -2.15763125      -1.36671185      -0.09856200       0.29713937       0.12567635      -0.50978434       0.03099572      -0.22621102
H       -3.71472411      -3.07360512      -0.29241079      -0.08280826       0.05666911      -0.02049427      -0.34337441       0.42295522       0.63340956
9
Properties=species:S:1:pos:R:3:momenta:R:3:forces:R:3 R1=H R2=H R3=CH3 R4=CH3 leaving_group=Cl nucleophile=Cl rxn=sn2 config=rcc label=H_H_CH3_CH3_Cl_Cl_sn2_rcc conformation=0 reactant_id=H_H_CH3_CH3_Cl_none_-_r product_id=H_H_CH3_CH3_none_Cl_sn2_pc mp2_author_energy=-29302.391748605172 mp2_my_energy=0 hash=59123 address=T id=71 energy=-17370.447869025636 pbc="F F F"
C       -5.67626636      -3.25573514       0.63827998       0.72655227       0.44394707      -0.04516631       0.77698328       1.20351842       2.16289695
C       -6.69619693      -2.51455647      -0.08313812      -1.29163933      -1.79744573       0.22259876      -0.96041449       1.43760721      -0.17783072
H       -6.31266563      -1.48771045      -0.25309103       0.20929980      -0.04442215       0.09396434      -0.13214116      -0.71884997      -0.41958890
F       -5.61474540      -4.72350298      -1.59039944      -0.32062789       1.03510527       0.77020884      -0.16359795      -0.40617753      -0.60461426
Cl      -6.04450411      -0.90843751       2.90340191      -2.25796319      -0.82253310       0.02852635       0.07886002      -0.42447359      -0.35711669
H       -4.93250392      -2.63218193       1.16061421       0.17820365       0.29372005      -0.16029360      -0.36285013      -0.60664077      -0.19290281
H       -5.38254880      -4.14797055       0.10794766       0.02859102      -0.17108892      -0.26881748       0.43141396      -0.30216730      -0.16597535
H       -7.61291303      -2.34042129       0.48553343       0.06076245       0.01619618       0.08734569       0.09068170      -0.26366214       0.18418273
H       -6.93260215      -3.08959620      -0.97493414       0.12037844       0.04901204      -0.33752673       0.24106477       0.08084567      -0.42905095
9
Properties=species:S:1:pos:R:3:momenta:R:3:forces:R:3 R1=H R2=H R3=CH3 R4=CH3 leaving_group=Cl nucleophile=Cl rxn=sn2 config=rcc label=H_H_CH3_CH3_Cl_Cl_sn2_rcc conformation=0 reactant_id=H_H_CH3_CH3_Cl_none_-_r product_id=H_H_CH3_CH3_none_Cl_sn2_pc mp2_author_energy=-29302.391748605172 mp2_my_energy=0 hash=59123 address=T id=71 energy=-17370.34232182335 pbc="F F F"
C       -6.41805598      -2.90374607       0.26225804      -0.31345948      -0.39660322      -0.09146213       1.02278531       0.60517334      -2.75510906
C       -6.93197062      -4.18188233       0.72829251       0.75772767       0.12469567       0.95618269      -0.10097959       0.00978387       1.54188418
H       -7.84201324      -4.08026148       1.30030912      -0.15514082      -0.03724630      -0.02310910      -0.61049378       0.28078962      -0.21009177
F       -5.41576370      -4.30779096      -1.78534460       0.06328293       0.13653982      -1.09315696       0.15932316      -0.38593541      -0.52793589
Cl      -7.36615569      -1.18150919       3.04415632      -1.97230583      -0.24188074       0.45573891      -0.00316966      -0.16723308      -0.14042128
H       -6.35275503      -1.98283087       0.76800297      -0.15865443      -0.09380772      -0.04844145      -0.30231524       0.40931232       1.13919292
H       -5.83923680      -2.95152410      -0.73299083       0.06080956      -0.23972780       0.01023942      -0.82720804      -0.26174982       1.42998952
H       -6.24932407      -4.52963611       1.50871040      -0.02247128      -0.05888412       0.03256690       0.32324417      -0.45519435      -0.47491407
H       -7.07138468      -4.86824763      -0.10092152      -0.11279517       0.08104241       0.08584982       0.33881367      -0.03494649      -0.00259455
9
Properties=species:S:1:pos:R:3:momenta:R:3:forces:R:3 R1=H R2=H R3=CH3 R4=CH3 leaving_group=Cl nucleophile=Cl rxn=sn2 config=rcc label=H_H_CH3_CH3_Cl_Cl_sn2_rcc conformation=0 reactant_id=H_H_CH3_CH3_Cl_none_-_r product_id=H_H_CH3_CH3_none_Cl_sn2_pc mp2_author_energy=-29302.391748605172 mp2_my_energy=0 hash=59123 address=T id=71 energy=-17370.450355989553 pbc="F F F"
C       -6.99995282      -2.90339519       0.09131773      -0.25498880      -0.41533267      -0.57436870      -0.98510284       1.26449510       2.39669606
C       -6.40329460      -3.86149327       1.04972751       0.11225624       0.43777461       0.17921272      -0.22505645      -0.49965862       0.07115033
H       -5.74030389      -3.44093979       1.76687366      -0.13714440       0.34806226       0.06130101       0.27533285       0.84754276       0.78337990
F       -5.58979668      -4.34734747      -1.65514205       0.13111706      -0.04272999       0.30162271       0.58017991      -0.64367431      -0.59298136
Cl      -8.40871498      -1.73580580       3.08352291      -0.98657452      -0.75793305       0.60949864       0.23298899      -0.16498300      -0.65902933
H       -7.84406337      -2.29950155       0.43504314      -0.27148407       0.11438354      -0.31483925       0.27588870      -0.27519793      -0.26563092
H       -6.89194146      -3.31707261      -0.88637957      -0.07991738       0.00057513       0.09154974      -0.32843422       0.17050011      -0.98851068
H       -5.77149205      -4.50282274       0.44742298      -0.04565856      -0.13438324      -0.09609535      -0.12889344      -0.64386878      -0.44559040
H       -7.21071750      -4.37138532       1.59271492       0.08729646      -0.11649986      -0.03608117       0.30309652      -0.05515533      -0.29948361
9
Properties=species:S:1:pos:R:3:momenta:R:3:forces:R:3 R1=H R2=H R3=CH3 R4=CH3 leaving_group=Cl nucleophile=Cl rxn=sn2 config=rcc label=H_H_CH3_CH3_Cl_Cl_sn2_rcc conformation=0 reactant_id=H_H_CH3_CH3_Cl_none_-_r product_id=H_H_CH3_CH3_none_Cl_sn2_pc mp2_author_energy=-29302.391748605172 mp2_my_energy=0 hash=59123 address=T id=71 energy=-17370.376361019396 pbc="F F F"
C       -7.40656960      -3.56133679       0.60314688      -0.05853652       0.32842199      -0.19719948      -0.36567032       0.18563898      -0.12795672
C       -6.26216616      -2.81980496       1.17857249      -0.41390015       0.93706340      -0.60868512       1.38327592       0.07196305      -0.24938451
H       -6.35335430      -1.73156111       1.15455482      -0.06560552      -0.12155460       0.03790043      -0.30596147      -0.12367880      -0.13906993
F       -5.98239872      -4.29037790      -1.54702819      -0.21710468      -0.17180474       0.64365183       0.42380777      -0.16682321      -0.46706623
Cl      -9.43807979      -2.46502280       2.95711105      -1.25072337      -1.28319324       0.17462056      -0.14669544       0.09370163       0.23167836
H       -8.15523521      -3.89420652       1.26522713       0.10463438       0.11353211      -0.04738532      -0.73544085       0.27452409       0.97497558
H       -7.19377441      -4.35890720      -0.06677844       0.15776981      -0.22017515      -0.01676029       0.67990580      -0.28523614      -0.82794032
H       -5.28129744      -3.07031490       0.69146188      -0.17338578      -0.22956973       0.20146919      -1.06871019       0.04128713       0.32903606
H       -6.21723451      -3.09545963       2.22327562       0.20313270      -0.02402935       0.07541777       0.13548878      -0.09137673       0.27572771
9
Properties=species:S:1:pos:R:3:momenta:R:3:forces:R:3 R1=H R2=H R3=CH3 R4=CH3 leaving_group=Cl nucleophile=Cl rxn=sn2 config=rcc label=H_H_CH3_CH3_Cl_Cl_sn2_rcc conformation=0 reactant_id=H_H_CH3_CH3_Cl_none_-_r product_id=H_H_CH3_CH3_none_Cl_sn2_pc mp2_author_energy=-29302.391748605172 mp2_my_energy=0 hash=59123 address=T id=71 energy=-17370.383303404225 pbc="F F F"
C       -7.91070192      -4.09404107       0.69529855       0.31053230      -0.24496582       1.05232656       0.23336297       1.19755245       0.25898066
C       -7.79832299      -2.62486565       0.35738272      -0.92643314      -0.03258085      -0.33321113      -1.21265884      -0.26838838      -0.63316249
H       -8.85886459      -2.22899393       0.22740363      -0.02638377      -0.39896649       0.39153964       1.51303494      -0.14167779      -0.14314628
F       -5.65231858      -3.85879256      -0.79503233      -0.14890845       0.31435905      -0.07627410      -0.92300057      -0.27460277       0.58535746
Cl     -10.36568527      -3.22043218       3.10857778      -1.31523790      -0.98421189      -0.57515128       0.47526464      -0.18202133      -0.57061261
H       -8.58180478      -4.25332849       1.56451090      -0.05846685       0.24228540       0.00499084       0.83061009      -0.31174469      -0.67247271
H       -6.95213878      -4.59987690       0.57912667       0.02498254       0.26657444       0.02675183      -0.16515278      -0.03366216       0.12065027
H       -7.06664559      -2.50062244      -0.48963213       0.06806986       0.10045602       0.14632069      -0.89708430      -0.27412642       0.54860823
H       -7.34323517      -2.17049266       1.21652790      -0.04218295      -0.09107094      -0.31282217       0.14562385       0.28867108       0.50579747
9
Properties=species:S:1:pos:R:3:momenta:R:3:forces:R:3 R1=H R2=H R3=CH3 R4=CH3 leaving_group=Cl nucleophile=Cl rxn=sn2 config=rcc label=H_H_CH3_CH3_Cl_Cl_sn2_rcc conformation=0 reactant_id=H_H_CH3_CH3_Cl_none_-_r product_id=H_H_CH3_CH3_none_Cl_sn2_pc mp2_author_energy=-29302.391748605172 mp2_my_energy=0 hash=59123 address=T id=71 energy=-17370.28344414473 pbc="F F F"
C       -8.32542679      -3.48569948       1.13056376      -0.34042604      -0.30108318      -0.03975267       1.53813110       0.25187369      -1.06814624
C       -8.85576519      -3.46171654      -0.26045717       0.15895453      -1.02964136      -0.14543027      -0.06939939      -0.87420939      -0.55020761
H       -9.53101732      -4.33988920      -0.42256295      -0.08324257      -0.02492190       0.06731532       0.41038431       0.81594415      -0.15448296
F       -5.88385205      -3.25070720      -0.07493916      -0.68160501       1.00405175       0.69981681      -1.77119085      -0.15936061       0.54742759
Cl     -11.15108739      -4.04200447       3.07675790      -0.95986768      -0.61530558       0.13308556       0.39903197       0.12661395      -0.46839548
H       -8.88810413      -2.96358113       1.87668089      -0.11682538      -0.26535013      -0.26458609      -0.05300168       0.10100795       0.27312610
H       -7.27308107      -3.27325069       0.92651350      -0.27203570       0.02266647      -0.02847978       0.33509178       0.12714843       0.97255984
H       -7.89412559      -3.54973877      -0.86811278      -0.05307162       0.47020446       0.15417058      -1.12285854       0.15956484       0.29778889
H       -9.37335716      -2.50093268      -0.45235557       0.09868168      -0.14178507      -0.23088530       0.33381129      -0.54858302       0.15032986
9
Properties=species:S:1:pos:R:3:momenta:R:3:forces:R:3 R1=H R2=H R3=CH3 R4=CH3 leaving_group=Cl nucleophile=Cl rxn=sn2 config=rcc label=H_H_CH3_CH3_Cl_Cl_sn2_rcc conformation=0 reactant_id=H_H_CH3_CH3_Cl_none_-_r product_id=H_H_CH3_CH3_none_Cl_sn2_pc mp2_author_energy=-29302.391748605172 mp2_my_energy=0 hash=59123 address=T id=71 energy=-17370.39532556686 pbc="F F F"
C       -9.10896521      -3.08915527       1.44671053      -1.29181337       0.23479607      -0.43563451      -1.37577137      -0.24080677       0.74989066
C       -8.94990147      -4.36539558       0.68817486      -0.00352227      -0.24606320       0.43270835       0.50775475       1.70182499      -2.03211812
H       -8.48144989      -5.12454184       1.25140853      -0.00665350      -0.19676540       0.09246324      -0.21804891      -1.18695236       0.97164606
F       -6.79982441      -2.62134600       0.17456058      -0.06487102       0.35943585       0.68700651       0.57889457       0.20363553      -0.37004144
Cl     -11.71411336      -4.69164883       2.63712517      -0.50962272      -1.04200126       0.14440481      -0.30829234      -0.12060557       0.13757546
H      -10.13271286      -2.86909315       1.86322182      -0.01605408       0.40226402      -0.20347821       1.49306416      -0.06919352      -0.57397412
H       -8.38458108      -2.33921352       1.14188640      -0.22620427      -0.03591696       0.04863955      -0.12636298       0.21622744       0.11994426
H       -8.17223154      -4.16191914      -0.10796219      -0.12755757       0.06159508      -0.18135572      -0.77626126       0.20161412       0.68956444
H       -9.91778619      -4.55459651       0.22053742       0.26938482      -0.31175393      -0.28132809       0.22502338      -0.70574386       0.30751281
9
Properties=species:S:1:pos:R:3:momenta:R:3:forces:R:3 R1=H R2=H R3=CH3 R4=CH3 leaving_group=Cl nucleophile=Cl rxn=sn2 config=rcc label=H_H_CH3_CH3_Cl_Cl_sn2_rcc conformation=0 reactant_id=H_H_CH3_CH3_Cl_none_-_r product_id=H_H_CH3_CH3_none_Cl_sn2_pc mp2_author_energy=-29302.391748605172 mp2_my_energy=0 hash=59123 address=T id=71 energy=-17370.292594858634 pbc="F F F"
C       -9.69928532      -3.43161757       1.45569817      -0.42760437       0.15905281       0.24511291       2.33395177       0.48264427       0.16298718
C       -8.74523678      -4.61379187       1.75659255      -0.29218597      -0.39452212       0.84408538      -0.90678609      -0.96520720      -1.52768176
H       -9.12487583      -5.32636305       2.51473084      -0.10436206       0.26938791      -0.02829770      -0.53318977       0.50458548      -0.71303197
F       -7.74111770      -2.02219206       0.21618478      -0.90518300      -0.09993987      -0.01749810      -0.38241467      -0.39341388       0.39754638
Cl     -12.29429712      -5.23313695       2.35287442      -0.35532987      -0.77611900      -0.99428730      -0.21997818      -0.14600974       0.12897643
H      -10.61698198      -3.66879485       0.97358578       0.13970455      -0.15121555       0.31536404      -0.38725399      -0.60002985      -0.00281719
H       -9.18038121      -2.56112409       0.99387456      -0.30692139       0.03745517      -0.02050255      -0.01785425      -0.50887915       0.32143645