9
Properties=species:S:1:pos:R:3:momenta:R:3:forces:R:3 R1=H R2=H R3=CH3 R4=CH3 leaving_group=Cl nucleophile=Cl rxn=sn2 config=rcc label=H_H_CH3_CH3_Cl_Cl_sn2_rcc conformation=0 reactant_id=H_H_CH3_CH3_Cl_none_-_r product_id=H_H_CH3_CH3_none_Cl_sn2_pc mp2_author_energy=-29302.391748605172 mp2_my_energy=0 hash=59123 address=T id=71 energy=-17370.412368016237 pbc="F F F"
C        0.12542541       0.11270554      -0.00029240       0.16560967       0.51391399      -0.65418431      -0.09214561       1.11788396      -0.00082481
C        1.62503867       0.00847468       0.00156754       0.05978641       0.77394843      -0.64738647      -0.06338950      -0.85342640       0.00215309
H        1.99473018      -0.50605055       0.89354482      -0.07772908      -0.13247302       0.14953076       0.00320508       0.00300841       0.00517082
F        0.89788639       2.64149152      -0.00442372      -1.09127679      -0.83521380       0.95575149      -0.23271315      -0.10403772      -0.00076135
Cl      -0.69504884      -1.53494042       0.00509220       0.58165605      -1.10691229       0.37032746       0.38207948      -0.16174994      -0.00050876
H       -0.22306082       0.64592326      -0.87549887       0.00437960       0.21146291       0.11273663      -0.00302890      -0.00293595      -0.00472561
H       -0.22431889       0.65275656       0.87018381       0.08514769       0.10069912       0.15616787      -0.00396382      -0.00350204       0.00469305
H        1.88822962       1.08069343      -0.00059746      -0.02602617       0.06956909      -0.05689133       0.00778691       0.00253743      -0.00033365
H        1.99700981      -0.51031959      -0.88698835      -0.19728235      -0.22133548      -0.23733499       0.00216950       0.00222225      -0.00486279
9
Properties=species:S:1:pos:R:3:momenta:R:3:forces:R:3 R1=H R2=H R3=CH3 R4=CH3 leaving_group=Cl nucleophile=Cl rxn=sn2 config=rcc label=H_H_CH3_CH3_Cl_Cl_sn2_rcc conformation=0 reactant_id=H_H_CH3_CH3_Cl_none_-_r product_id=H_H_CH3_CH3_none_Cl_sn2_pc mp2_author_energy=-29302.391748605172 mp2_my_energy=0 hash=59123 address=T id=71 energy=-17370.13672522991 pbc="F F F"
C        0.05545749      -0.12818841       0.11782995      -0.30691747      -0.81445204       0.59581936      -2.57748335      -0.57070035       1.34987678
C        0.12040245       0.45076602      -1.25468190      -1.36336221       0.84977473      -1.17874478       0.62550909      -1.81023985      -1.22745269
H        1.06326596      -0.01967259      -1.66829002      -0.40101738       0.06420891      -0.13984993      -0.83690443       1.13357562      -0.16046632
F       -0.35305425       2.25784444       1.16903052      -1.02132152      -1.13504992       0.56768221       0.10782792      -0.18463115      -0.28829877
Cl       0.19004819      -1.99382358      -0.00361756       2.18873408      -0.14033884       0.02257668       0.27469009       0.13582413      -0.48345838
H       -0.95043727      -0.01968762       0.58852096       0.07695143      -0.02364902       0.23169913       1.21458230       0.47733264      -0.27365315
H        0.82897649       0.17663753       0.78841035       0.02795992      -0.15192301       0.00402932       0.25333881       0.40631941       0.19551006
H        0.14137025       1.53789319      -1.16442567      -0.20113683       0.16554816       0.13738423       0.02723306      -0.20162853       0.04821255
H       -0.73251104       0.07039462      -1.90444719       0.08122859       0.02491161       0.03506194       0.91120650       0.61414808       0.83972992
9
Properties=species:S:1:pos:R:3:momenta:R:3:forces:R:3 R1=H R2=H R3=CH3 R4=CH3 leaving_group=Cl nucleophile=Cl rxn=sn2 config=rcc label=H_H_CH3_CH3_Cl_Cl_sn2_rcc conformation=0 reactant_id=H_H_CH3_CH3_Cl_none_-_r product_id=H_H_CH3_CH3_none_Cl_sn2_pc mp2_author_energy=-29302.391748605172 mp2_my_energy=0 hash=59123 address=T id=71 energy=-17370.267757377067 pbc="F F F"
C       -0.04729072      -0.32105368       0.26107787      -0.00685777      -0.09633533       0.01331128      -0.95768613      -1.55959903      -0.48789014
C       -1.51189202      -0.89862805       0.06063455      -0.34370242      -1.13720576       1.07021985       1.90705854       1.74294376       1.03989762
H       -1.79064538      -0.83377356      -0.97114897       0.26978702       0.06174022      -0.03046300      -0.20230861       0.21288580      -0.66996631
F       -1.47772996       1.41159225       1.61484564      -1.04408765      -0.07036063       0.29087261      -0.18361362       0.50621441       0.38300040
Cl       1.01285454      -1.55184767      -0.71259233       0.17150683       1.10202618      -1.18396042      -0.15620822       0.71201007       0.39810874
H        0.31263025      -0.29900917       1.29555957       0.24049086      -0.11163696      -0.03324560      -0.38214647      -0.34854140      -0.39018718
H        0.08601105       0.68216399      -0.12243278      -0.01362401      -0.15199918       0.05455803      -0.12477215      -0.13432244      -0.31881644
H       -2.09327387      -0.23644354       0.72816652      -0.11204942      -0.35120532      -0.03077911       0.07655167      -0.10653272      -0.34973248
H       -1.54067703      -1.91974945       0.35424118       0.17951806      -0.07766638       0.04718741       0.02312499      -1.02505846       0.39558579
9
Properties=species:S:1:pos:R:3:momenta:R:3:forces:R:3 R1=H R2=H R3=CH3 R4=CH3 leaving_group=Cl nucleophile=Cl rxn=sn2 config=rcc label=H_H_CH3_CH3_Cl_Cl_sn2_rcc conformation=0 reactant_id=H_H_CH3_CH3_Cl_none_-_r product_id=H_H_CH3_CH3_none_Cl_sn2_pc mp2_author_energy=-29302.391748605172 mp2_my_energy=0 hash=59123 address=T id=71 energy=-17370.13339050603 pbc="F F F"
C       -0.50316006      -0.73938865       0.25455025      -0.42820932       0.69655047       0.30654259      -0.50602393      -1.59222600      -1.38242720
C       -0.22184329      -1.87225136       1.26118015       0.41679511       0.71382869      -0.10316073       2.08795401      -0.27531327      -2.64966650
H       -0.32815520      -2.90339112       0.79368005       0.21834201      -0.07894002       0.08654567       0.14332200       1.27477836       0.56645691
F       -2.42317371      -0.01935259       1.71661455      -0.02927909      -2.55216745      -0.05249264      -1.56400227       0.43585197       1.41723830
Cl       0.69296568      -0.78384098      -1.13659329      -0.54303812       0.35689217      -0.40981160       0.19095542      -0.30056990       0.32128204
H       -0.46817431       0.17007181       0.79373339      -0.31980191       0.07097412       0.04972300       0.34981376       1.00067076       0.17135768
H       -1.53856489      -0.77669271      -0.14695281      -0.13120168      -0.21812593       0.20769694       1.00648095      -0.14358732       0.27836976
H       -0.91337452      -1.70387369       2.04051846      -0.08528115      -0.13136996       0.20225462      -0.73036677       0.27586829       0.90430248
H        0.85887809      -1.68495857       1.51711935       0.08217308       0.10695152      -0.04145313      -0.97813318      -0.67547290       0.37308653
9
Properties=species:S:1:pos:R:3:momenta:R:3:forces:R:3 R1=H R2=H R3=CH3 R4=CH3 leaving_group=Cl nucleophile=Cl rxn=sn2 config=rcc label=H_H_CH3_CH3_Cl_Cl_sn2_rcc conformation=0 reactant_id=H_H_CH3_CH3_Cl_none_-_r product_id=H_H_CH3_CH3_none_Cl_sn2_pc mp2_author_energy=-29302.391748605172 mp2_my_energy=0 hash=59123 address=T id=71 energy=-17370.308626213955 pbc="F F F"
C       -0.78350118      -1.06734355       0.27907105       0.27737214       0.31252805      -0.01193221       0.24128674       0.34025056      -0.28705493
C       -0.05124367      -0.64811433       1.53484461       0.05431077       0.94978491       0.29136940      -1.27163406      -0.44804360       0.57975283
H        0.93658194      -1.05878183       1.52640603      -0.08822355      -0.01288239       0.18943821       0.73015013      -0.63858396       0.23038031
F       -2.28766257      -2.32819353       1.82786900       0.55508464      -1.66823541      -0.60034177       0.07362798       0.16516136      -0.00579722
Cl       0.22350721      -0.46710673      -1.18869847      -1.60826377      -0.21289012       0.29735084       0.29715858       0.13859765       0.20212035
H       -1.69505396      -0.53114306       0.12266154       0.04022538      -0.18757025      -0.04984721      -0.57963540      -0.15121439       0.29566046
H       -0.90241479      -2.11797871       0.12694151       0.12457454      -0.09990086      -0.17731949      -0.13047756      -0.25863669       0.33947948
H       -0.71333538      -1.06037233       2.39016023       0.10967569       0.15694280      -0.08258587       0.95862126       0.58058245      -1.46450385
H        0.10035915       0.42863148       1.55881641      -0.03888392       0.03683570       0.31610260      -0.31909767       0.27188661       0.10996257
9
Properties=species:S:1:pos:R:3:momenta:R:3:forces:R:3 R1=H R2=H R3=CH3 R4=CH3 leaving_group=Cl nucleophile=Cl rxn=sn2 config=rcc label=H_H_CH3_CH3_Cl_Cl_sn2_rcc conformation=0 reactant_id=H_H_CH3_CH3_Cl_none_-_r product_id=H_H_CH3_CH3_none_Cl_sn2_pc mp2_author_energy=-29302.391748605172 mp2_my_energy=0 hash=59123 address=T id=71 energy=-17370.305050031147 pbc="F F F"
C       -0.66195586      -1.54419487       0.26166096      -0.50401339       0.43993561      -0.14256031      -0.33215748       0.64524668       0.65118568
C       -1.41668780      -0.82650329       1.39268022      -0.36163304      -0.89072301      -1.03957398       0.13849037      -0.37155970       0.09108259
H       -0.79869107      -0.05083333       1.90783823      -0.06094909      -0.08820541      -0.00063748      -0.44732202      -0.32446497      -0.83242733
F       -0.93308551      -3.43803637       1.77198833       0.91701871      -1.01611165       0.89900480       0.16712012       0.11672937      -0.39073816
Cl      -0.38197872      -0.09653680      -0.97463512      -0.79529992       1.00354483       0.18425459       0.01490242      -0.74767699       0.25336589
H       -1.17452214      -2.34512379      -0.28538972       0.16718518       0.09282676       0.01021852       0.00202939       0.61910383       0.49619369
H        0.31383640      -1.87371947       0.57349831       0.19046761       0.15644094       0.07805414       0.13894281      -0.07837434      -0.04939735
H       -1.63780714      -1.59507930       2.13525379      -0.01087001      -0.34533088       0.13673727       0.15357165      -0.25690452      -0.25486434
H       -2.36396194      -0.43579961       1.01184862      -0.11799993      -0.08024849       0.04732668       0.16442275       0.39790065       0.03559934
9
Properties=species:S:1:pos:R:3:momenta:R:3:forces:R:3 R1=H R2=H R3=CH3 R4=CH3 leaving_group=Cl nucleophile=Cl rxn=sn2 config=rcc label=H_H_CH3_CH3_Cl_Cl_sn2_rcc conformation=0 reactant_id=H_H_CH3_CH3_Cl_none_-_r product_id=H_H_CH3_CH3_none_Cl_sn2_pc mp2_author_energy=-29302.391748605172 mp2_my_energy=0 hash=59123 address=T id=71 energy=-17370.19565140033 pbc="F F F"
C       -0.77904875      -1.53904435       0.49865469      -0.08846482      -0.74255201       0.00909795       0.45080879      -0.74867362      -1.36201133
C       -2.04462251      -2.33537615       0.56540576       0.69604356       0.13899923      -0.55192340      -0.53439245      -0.56355255      -0.16758801
H       -2.82168851      -1.73947026       0.96468320      -0.10949553      -0.02993366      -0.18322847      -0.94207435       0.76963316       0.84622737
F        0.31727775      -3.34198627       1.50003858       0.57214494      -0.30008997       0.08856177       0.62374695      -1.25971897       0.83698170
Cl      -1.13997201      -0.00169727      -0.45351669      -2.14712621       0.12249399       0.70521130      -0.16336552       0.19847195      -0.11021982
H        0.03374344      -2.15807576       0.07327770       0.21385304       0.14881201       0.12773085      -0.53909763       0.92646791      -0.09258567
H       -0.45507550      -1.29207138       1.48043309       0.03697764      -0.12153334       0.15679953       0.19045760       0.47470711       0.58766411
H       -1.87358231      -3.20647861       1.18621203       0.17044219       0.15768022      -0.18140945       0.43484128       0.14624652       0.22969199
H       -2.47832786      -2.69755607      -0.35872899       0.12077736      -0.04963504      -0.01038939       0.47907532       0.05641849      -0.76816033
9
Properties=species:S:1:pos:R:3:momenta:R:3:forces:R:3 R1=H R2=H R3=CH3 R4=CH3 leaving_group=Cl nucleophile=Cl rxn=sn2 config=rcc label=H_H_CH3_CH3_Cl_Cl_sn2_rcc conformation=0 reactant_id=H_H_CH3_CH3_Cl_none_-_r product_id=H_H_CH3_CH3_none_Cl_sn2_pc mp2_author_energy=-29302.391748605172 mp2_my_energy=0 hash=59123 address=T id=71 energy=-17370.202954224776 pbc="F F F"
C       -0.85775607      -1.79488185       0.47907621      -1.01949473      -0.27421719       0.27117150      -0.57264745       1.99801001      -1.26588993
C       -0.86703272      -2.63276547      -0.80306651      -0.10531379       0.84909746      -1.06511426       1.13095585       0.08003047       1.13122726
H       -1.64449922      -3.39761326      -0.76591314       0.30797658       0.00142546       0.19508180       0.04696338      -0.07088566      -0.00760510
F        0.81711717      -3.03085032       1.37880324       0.59077870       0.47387773      -0.27608725       0.78495791      -0.67540226       0.08370318
Cl      -2.31200144      -0.48164267       0.33784946      -0.95147177      -1.89150582       0.86962297       0.44065782      -0.73774158      -0.27268743
H        0.01694865      -1.12676772       0.57858487       0.02236436      -0.19918466      -0.06314692      -0.70200744      -0.74659657      -0.03881885
H       -1.08579616      -2.33690392       1.35473464       0.13926137      -0.03515187       0.13962920      -0.08098159      -0.26397587       0.64609947
H        0.15878615      -3.08833843      -0.73096252       0.08171317       0.06171529       0.22965267      -1.05719938       0.15237528      -0.11545248
H       -0.98294563      -2.04243282      -1.70341972       0.28931689       0.19917746      -0.10735335       0.00930090       0.26418619      -0.16057612
9
Properties=species:S:1:pos:R:3:momenta:R:3:forces:R:3 R1=H R2=H R3=CH3 R4=CH3 leaving_group=Cl nucleophile=Cl rxn=sn2 config=rcc label=H_H_CH3_CH3_Cl_Cl_sn2_rcc conformation=0 reactant_id=H_H_CH3_CH3_Cl_none_-_r product_id=H_H_CH3_CH3_none_Cl_sn2_pc mp2_author_energy=-29302.391748605172 mp2_my_energy=0 hash=59123 address=T id=71 energy=-17370.104572903765 pbc="F F F"
C       -1.12001070      -2.17090522       0.45373897      -0.94235219       0.48868667      -0.26480549       2.02108948       1.85380788       0.14915066
C       -0.73476328      -0.79028988      -0.19112099      -0.45114336       1.21837015       0.43900089      -0.40204859      -1.03521627       0.73716758
H       -0.98623138      -0.75315997      -1.26304043       0.17673716       0.26492945       0.16334604      -0.26095204       0.17397262       0.52759739
F        1.09881559      -2.39447351       0.58532006       1.10336640       0.10535244      -0.60940588       0.04780792      -0.34259563      -0.03450021
Cl      -2.93733020      -2.12199650       0.67262539      -1.11090998      -3.31061195       0.67483639      -1.31349021      -0.04131065      -0.28509944
H       -0.74800725      -2.23593837       1.47337542      -0.09579944       0.03845307      -0.15935739       0.05051439      -0.30487113      -0.66244212
H       -0.88166635      -2.97932286      -0.20767464       0.30633609       0.18593115      -0.12791720       0.10008220      -0.45137802       0.19571288
H        0.34046262      -0.72764724      -0.05975284       0.12252264       0.09083034       0.13826493       0.08669367      -0.24463533      -0.17449313
H       -1.19282907      -0.02218031       0.43048750       0.09422465      -0.08894133      -0.01486231      -0.32969683       0.39222653      -0.45309361
9
Properties=species:S:1:pos:R:3:momenta:R:3:forces:R:3 R1=H R2=H R3=CH3 R4=CH3 leaving_group=Cl nucleophile=Cl rxn=sn2 config=rcc label=H_H_CH3_CH3_Cl_Cl_sn2_rcc conformation=0 reactant_id=H_H_CH3_CH3_Cl_none_-_r product_id=H_H_CH3_CH3_none_Cl_sn2_pc mp2_author_energy=-29302.391748605172 mp2_my_energy=0 hash=59123 address=T id=71 energy=-17370.02298935117 pbc="F F F"
C       -1.23288681      -2.07196052       0.19005806       0.50594799       0.01750329       0.77228104      -0.44514375      -0.87442253       0.81839034
C       -1.33943029      -1.34850588       1.50590245       0.48678064      -0.87383251       0.35781743      -1.49044831       0.21908685       0.72464490
H       -2.40065329      -1.03490896       1.67223261       0.17865652      -0.20391980       0.08428910       0.88900311       0.15449571      -0.09705483
F        0.57356002      -0.97922426      -0.17072096      -1.36267643       1.46498558      -0.58162811      -0.31570574      -0.09436416      -0.10278160
Cl      -2.81946515      -3.30183169       0.60751198      -0.24463275      -1.88296886      -0.58429650       0.08801566      -0.09987741      -0.70477984
H       -0.49497627      -2.84624162       0.17294390      -0.07499203       0.13594841      -0.01276320       0.32129222       0.07734703      -0.54578413
H       -1.56967452      -1.64777559      -0.75308535      -0.10443778       0.24958116       0.12998763       0.31351482       0.05182997       0.55007856
H       -0.68976452      -0.49210472       1.54453877       0.11687884       0.05890527       0.05508983       0.39997258       0.08020727      -0.13600255
H       -1.14458202      -2.05627158       2.33774711      -0.20957637       0.13920322      -0.00836663       0.23949941       0.48569726      -0.50671083
9
Properties=species:S:1:pos:R:3:momenta:R:3:forces:R:3 R1=H R2=H R3=CH3 R4=CH3 leaving_group=Cl nucleophile=Cl rxn=sn2 config=rcc label=H_H_CH3_CH3_Cl_Cl_sn2_rcc conformation=0 reactant_id=H_H_CH3_CH3_Cl_none_-_r product_id=H_H_CH3_CH3_none_Cl_sn2_pc mp2_author_energy=-29302.391748605172 mp2_my_energy=0 hash=59123 address=T id=71 energy=-17370.13610948867 pbc="F F F"
C       -1.61909742      -2.09771500       0.37101361      -1.11241510       0.40072762      -1.21024960      -1.74403312       0.14321279       0.80024871
C       -0.68789210      -2.18618096       1.54342322       0.11618453      -0.48161404      -0.66743964      -0.03774746      -0.62995612       0.78728622
H       -1.29678812      -2.32246826       2.48382054      -0.03009549       0.06443367      -0.17449131       0.71275046       0.25561181      -0.86678860
F       -1.33843172      -0.03490650       0.26024540      -0.46470262       0.57893563       1.53791263       0.21119929      -0.47790312      -0.04965355
Cl      -2.33086189      -3.97799034       0.41528400       1.00496389      -1.31204048       0.75131575       0.10354466      -0.03625786      -0.26842100
H       -1.21775439      -2.08319036      -0.61540271       0.06910200       0.01605174      -0.00981716       0.20406226       0.20605180      -0.35921991
H       -2.58378787      -1.60514618       0.52828306      -0.12811773      -0.25542750       0.01536234       0.83310164      -0.22227624      -0.26318013
H       -0.15224098      -1.24162249       1.55567725      -0.06388315       0.15196792       0.02700289       0.07443641      -0.05798008       0.13974618
H       -0.01818676      -3.07807368       1.45447294       0.09164318       0.18335197      -0.11440328      -0.35731414       0.81949702       0.07998209
9
Properties=species:S:1:pos:R:3:momenta:R:3:forces:R:3 R1=H R2=H R3=CH3 R4=CH3 leaving_group=Cl nucleophile=Cl rxn=sn2 config=rcc label=H_H_CH3_CH3_Cl_Cl_sn2_rcc conformation=0 reactant_id=H_H_CH3_CH3_Cl_none_-_r product_id=H_H_CH3_CH3_none_Cl_sn2_pc mp2_author_energy=-29302.391748605172 mp2_my_energy=0 hash=59123 address=T id=71 energy=-17369.975188153192 pbc="F F F"
C       -1.96743145      -2.34663399       0.71652176       0.24411206       0.16461208       0.01472825      -0.47067780       1.38640602       0.42271702
C       -0.58438322      -1.77911426       0.37994835      -1.15012534      -0.04853043      -0.49072611      -0.12188302      -0.04864382       1.76709999
H        0.19772881      -2.19449646       1.08889816       0.21176928      -0.22545577      -0.32772793      -0.84409648       0.29766732      -0.93323525
F       -2.90963829      -0.59437971       1.47368688      -0.91097311      -0.80204165       0.95374268       1.21593547      -1.26049269      -0.72857416
Cl      -1.78534797      -4.25422163       0.23225138       1.19832055       0.31490818       0.11632180       0.09183015       0.49056841       0.01035680
H       -2.77695814      -1.98506708       0.08053314      -0.14940953      -0.09778720      -0.09482366       0.36255149      -0.43590315       0.40765719
H       -2.12334988      -2.40340842       1.77466350       0.11927764      -0.16339518      -0.23541148      -0.51716995      -0.11504426       0.01483218
H       -0.61484401      -0.69729543       0.51896164      -0.05226478       0.02789122       0.15430044      -0.20466250      -0.09885809       0.00024753
H       -0.33516408      -2.02204870      -0.62426855      -0.12072848       0.05906103       0.09259837       0.48817264      -0.21569973      -0.96110129
9
Properties=species:S:1:pos:R:3:momenta:R:3:forces:R:3 R1=H R2=H R3=CH3 R4=CH3 leaving_group=Cl nucleophile=Cl rxn=sn2 config=rcc label=H_H_CH3_CH3_Cl_Cl_sn2_rcc conformation=0 reactant_id=H_H_CH3_CH3_Cl_none_-_r product_id=H_H_CH3_CH3_none_Cl_sn2_pc mp2_author_energy=-29302.391748605172 mp2_my_energy=0 hash=59123 address=T id=71 energy=-17370.17637992949 pbc="F F F"
C       -1.98634929      -2.80927893       1.01518463       0.81518104      -0.32890731       0.09062577      -3.06095457      -0.01272298       0.97702387
C       -2.75867419      -1.75417667       0.26832245      -2.31624385       0.09023587       1.75129195      -0.30450132      -0.22766801      -0.03961495
H       -2.20332864      -0.99626814      -0.29699776      -0.15327583      -0.01457252      -0.00709820       0.33270442      -0.17053312       0.37759114
F       -3.30062462      -1.52502348       2.05341977      -0.02652851      -0.77951917      -1.05722378       1.07724472      -0.54140338      -0.69355183
Cl      -1.03020221      -4.09698856      -0.04392697       0.74348315       0.66376422      -0.54803212      -0.29987737       0.96077996      -0.27080484
H       -2.70218394      -3.43609764       1.57187265       0.20730898      -0.08962156       0.01935687       0.69504668       0.21932745      -0.39892914
H       -1.28898499      -2.39285043       1.69159393       0.15339172      -0.12984883      -0.06714762       0.90340413       0.27529957       0.45000580
H       -3.23866292      -1.22501425       1.11987921      -0.24336586      -0.07770545      -0.12268262       0.19387421      -0.14740910      -0.73606858
H       -3.57780256      -2.09783416      -0.39900288       0.14691439      -0.18430379       0.14284560       0.46305909      -0.35567040       0.33434852
9
Properties=species:S:1:pos:R:3:momenta:R:3:forces:R:3 R1=H R2=H R3=CH3 R4=CH3 leaving_group=Cl nucleophile=Cl rxn=sn2 config=rcc label=H_H_CH3_CH3_Cl_Cl_sn2_rcc conformation=0 reactant_id=H_H_CH3_CH3_Cl_none_-_r product_id=H_H_CH3_CH3_none_Cl_sn2_pc mp2_author_energy=-29302.391748605172 mp2_my_energy=0 hash=59123 address=T id=71 energy=-17370.383789549942 pbc="F F F"
C       -2.08181326      -2.38747843       0.87209246      -0.02101033       0.95727082      -0.49117467      -0.27280755      -1.41615442      -0.81636941
C       -3.15632864      -3.41845938       1.11994984      -0.04603442      -0.15782755       0.71289757       0.71103617       2.02372380       0.48024907
H       -3.61828648      -3.65503304       0.17463837       0.06683429       0.15654837       0.06515998      -0.53599712      -0.18596835      -0.29051189
F       -3.66634509      -2.21325123       2.18805708      -0.89798425      -1.61183381       0.13433627       0.34147650       0.07414908      -0.54650085
Cl      -0.93974250      -3.55401179      -0.31744679       0.05930951      -0.06081508      -0.47453467      -0.02503912       0.58348704      -0.11861673
H       -1.37503419      -2.21673605       1.63753053       0.05978820       0.19166358      -0.10659115       0.29589196       0.32090332       0.89277947
H       -2.28889858      -1.48762450       0.29588931       0.08427909       0.04269195      -0.00487347      -0.19904685      -0.26503911       0.08444523
H       -3.89451034      -3.03033177       1.76911016       0.18542088      -0.26921557       0.13606593      -0.39005022      -0.32619523       0.01045970
H       -2.68076374      -4.26054547       1.57935546       0.10696742       0.24306377       0.14944036       0.07453624      -0.80890612       0.30406541
9
Properties=species:S:1:pos:R:3:momenta:R:3:forces:R:3 R1=H R2=H R3=CH3 R4=CH3 leaving_group=Cl nucleophile=Cl rxn=sn2 config=rcc label=H_H_CH3_CH3_Cl_Cl_sn2_rcc conformation=0 reactant_id=H_H_CH3_CH3_Cl_none_-_r product_id=H_H_CH3_CH3_none_Cl_sn2_pc mp2_author_energy=-29302.391748605172 mp2_my_energy=0 hash=59123 address=T id=71 energy=-17370.410970792618 pbc="F F F"
C       -2.74128416      -3.04126218       0.52205067      -0.16502753       0.07620560      -0.57200412       0.03846694       0.44404644      -0.39979753
C       -2.42156713      -3.62277378       1.88902628      -0.50129796       0.52357129       0.22856848       0.96320487       0.69459670      -0.74318092
H       -2.07847343      -4.68808909       1.79198240       0.08053915       0.09963531      -0.19570037      -0.21582813       0.77158807       0.27755000
F       -3.90504087      -3.37037325       2.13684090       0.09832790      -1.94376906       0.24479034      -1.51573086      -0.60580545       2.04614238
Cl      -1.13610310      -2.94942109      -0.39900466       0.01096851       0.45068850       0.03540625       0.54440744      -0.03337578      -0.44793650
H       -3.18442360      -2.04910534       0.64559874       0.02228038      -0.00558572      -0.08721298       0.42593887       0.06374489      -0.28931771
H       -3.48527532      -3.61166960      -0.01719373      -0.20133812      -0.05145614       0.13141355       0.04609418      -0.33753862      -0.45115979
H       -3.15195364      -3.56746206       2.65016717       0.29821727       0.08047190       0.38075620      -0.54566084      -0.34771254      -0.06956852
H       -1.68618138      -2.89586798       2.29728084      -0.05520325       0.24901876      -0.04226008       0.25910753      -0.64954371       0.07726859
9
Properties=species:S:1:pos:R:3:momenta:R:3:forces:R:3 R1=H R2=H R3=CH3 R4=CH3 leaving_group=Cl nucleophile=Cl rxn=sn2 config=rcc label=H_H_CH3_CH3_Cl_Cl_sn2_rcc conformation=0 reactant_id=H_H_CH3_CH3_Cl_none_-_r product_id=H_H_CH3_CH3_none_Cl_sn2_pc mp2_author_energy=-29302.391748605172 mp2_my_energy=0 hash=59123 address=T id=71 energy=-17370.295627965163 pbc="F F F"
C       -2.31497687      -4.01904790       0.55461931      -0.07204039      -0.41142541       0.55049302      -0.80897407       0.42472563       0.96132435
C       -3.02422248      -3.40108479       1.71257536       0.14456887      -0.50337299      -0.02251331      -0.26319593      -0.24964441       0.18267834
H       -2.33104941      -2.77396148       2.24460555      -0.23523777       0.16094327      -0.29230662       0.18332836      -0.15039162       0.92690706
F       -3.25326386      -4.70133468       2.27481638       1.23154609      -0.49573244      -0.51492734       0.31023802      -0.64690156      -0.38215464
Cl      -1.74882628      -2.36155480      -0.29888055      -1.04457806       0.75363214       0.43243895       0.39043757      -0.16298402      -0.70077830
H       -2.99436807      -4.53238559      -0.11094977       0.03125573      -0.13425062      -0.17672630       0.08974645      -0.21271859      -0.19770567
H       -1.43185492      -4.61340817       0.76489509       0.07878539       0.17328930       0.10477847       0.04683434       0.02011310       0.00045383
H       -3.73662048      -3.94252193       2.35154091      -0.38673817      -0.05812648       0.27199922       0.87439626       0.35656105      -0.23971510
H       -3.76966832      -2.74506141       1.32320436      -0.25648924      -0.12796611      -0.20056130      -0.82281099       0.62124043      -0.55100986
9
Properties=species:S:1:pos:R:3:momenta:R:3:forces:R:3 R1=H R2=H R3=CH3 R4=CH3 leaving_group=Cl nucleophile=Cl rxn=sn2 config=rcc label=H_H_CH3_CH3_Cl_Cl_sn2_rcc conformation=0 reactant_id=H_H_CH3_CH3_Cl_none_-_r product_id=H_H_CH3_CH3_none_Cl_sn2_pc mp2_author_energy=-29302.391748605172 mp2_my_energy=0 hash=59123 address=T id=71 energy=-17370.469817991052 pbc="F F F"
C       -2.10590627      -3.52052930       1.14231543      -0.41468601       0.00984795      -0.88777359      -0.82447290      -0.91910626       1.07190884
C       -3.26810722      -4.46883299       0.94973938      -0.03297062      -0.81156009      -1.27190358       0.92709670      -1.60129822       0.88802194
H       -4.19657512      -3.92154232       1.05328734      -0.04455973       0.00270794      -0.02873788      -0.53661841       0.07840067      -0.12464043
F       -2.51898546      -5.20624794       2.28770794       0.93538777      -0.20425678       1.65501977      -0.53312243       0.66616353      -0.96740224
Cl      -2.41346461      -2.16903044      -0.14258600      -0.83589629       1.28451011       0.79157994       0.10275149       0.28723276      -0.29564602
H       -1.15684818      -3.98039240       0.90739864      -0.07583723      -0.12967999       0.12075715       0.25691130       0.13024116       0.12045093
H       -2.08397672      -3.01674932       2.13487402       0.02934430      -0.06775144       0.11990178       0.05702512      -0.48729824      -0.83092144