9
Properties=species:S:1:pos:R:3:momenta:R:3:forces:R:3 R1=H R2=H R3=CH3 R4=CH3 leaving_group=Cl nucleophile=Cl rxn=sn2 config=rcc label=H_H_CH3_CH3_Cl_Cl_sn2_rcc conformation=0 reactant_id=H_H_CH3_CH3_Cl_none_-_r product_id=H_H_CH3_CH3_none_Cl_sn2_pc mp2_author_energy=-29302.391748605172 mp2_my_energy=0 hash=59123 address=T id=71 energy=-17370.412368016237 pbc="F F F"
C        0.12542541       0.11270554      -0.00029240      -0.27380162       0.79553273       0.36985237      -0.09214561       1.11788396      -0.00082481
C        1.62503867       0.00847468       0.00156754       0.95455034       0.46431220      -0.01575668      -0.06338950      -0.85342640       0.00215309
H        1.99473018      -0.50605055       0.89354482       0.05303012       0.41044499      -0.11212314       0.00320508       0.00300841       0.00517082
F        0.89788639       2.64149152      -0.00442372       0.58239251      -1.26673026      -0.07044973      -0.23271315      -0.10403772      -0.00076135
Cl      -0.69504884      -1.53494042       0.00509220       0.25428337       0.90895109       0.68191033       0.38207948      -0.16174994      -0.00050876
H       -0.22306082       0.64592326      -0.87549887       0.22064937       0.01988739      -0.02205575      -0.00302890      -0.00293595      -0.00472561
H       -0.22431889       0.65275656       0.87018381       0.07786370      -0.09784593       0.21298881      -0.00396382      -0.00350204       0.00469305
H        1.88822962       1.08069343      -0.00059746      -0.10381013      -0.26135384       0.22930064       0.00778691       0.00253743      -0.00033365
H        1.99700981      -0.51031959      -0.88698835      -0.13121573      -0.08667264      -0.00984189       0.00216950       0.00222225      -0.00486279
9
Properties=species:S:1:pos:R:3:momenta:R:3:forces:R:3 R1=H R2=H R3=CH3 R4=CH3 leaving_group=Cl nucleophile=Cl rxn=sn2 config=rcc label=H_H_CH3_CH3_Cl_Cl_sn2_rcc conformation=0 reactant_id=H_H_CH3_CH3_Cl_none_-_r product_id=H_H_CH3_CH3_none_Cl_sn2_pc mp2_author_energy=-29302.391748605172 mp2_my_energy=0 hash=59123 address=T id=71 energy=-17370.248717468614 pbc="F F F"
C        0.82567906       0.47992276       0.51733416       0.13560219      -0.25843327       0.50725144       0.13085321      -0.50914123      -1.17617856
C        2.17140349      -0.14808054       0.15853558       1.47186595       0.51629631       0.06816208      -1.42757880      -0.99339259       1.66674287
H        2.49668595      -0.75099282       1.02771633       0.05721146      -0.12356179      -0.07231412       0.11353480       0.22476072      -0.39933581
F        2.01428981       2.81071887       0.11209829       0.82396000      -0.32263030       0.04627515      -0.17415472      -0.70608823       0.13206880
Cl      -0.41672027      -0.93403828       0.74807437      -0.50180178       1.20181935       1.34889089       0.69134001       0.07737990       0.21774533
H        0.38097084       0.97540729      -0.33219962       0.06691330      -0.12716411      -0.09971074       0.31088901       0.72699891       0.37905282
H        0.85700837       1.00890164       1.44453304      -0.00142979      -0.00685214       0.02030418      -0.17303472       0.58261365       0.11325560
H        2.85793960       0.63560763      -0.04326004      -0.10071944      -0.05531095      -0.10928015       0.38640721       0.95775078      -0.22137825
H        2.02649234      -0.82278594      -0.65954807       0.15847378       0.32069791      -0.07747282       0.14174401      -0.36088190      -0.71197279
9
Properties=species:S:1:pos:R:3:momenta:R:3:forces:R:3 R1=H R2=H R3=CH3 R4=CH3 leaving_group=Cl nucleophile=Cl rxn=sn2 config=rcc label=H_H_CH3_CH3_Cl_Cl_sn2_rcc conformation=0 reactant_id=H_H_CH3_CH3_Cl_none_-_r product_id=H_H_CH3_CH3_none_Cl_sn2_pc mp2_author_energy=-29302.391748605172 mp2_my_energy=0 hash=59123 address=T id=71 energy=-17370.195209182195 pbc="F F F"
C        1.51401972       0.99942174       1.09413170       0.83238456      -0.53704539       0.66102920      -0.39740269      -1.75593899      -0.11678587
C        2.45844832      -0.05176075       0.49180498      -0.12420154       0.48882435      -0.19424358      -1.07555519       1.38040677      -1.00287026
H        2.64245305      -0.84381945       1.16135977      -0.03410008       0.06996498      -0.05194118       0.18093272      -1.09324320       0.80288167
F        3.39327675       2.61246611       0.26279689       1.35208648       0.35346369      -0.06575798       0.66174176       0.67901890      -0.26620912
Cl       0.12273336      -0.16592791       1.60700012       0.19044392       1.03320798       1.19300467      -0.03227279       0.75859625       0.25255556
H        1.13002980       1.68201478       0.34724059       0.02918083      -0.15461912      -0.11450280       0.01426862      -0.03153410       0.04956740
H        1.88701197       1.57871986       1.94286996       0.08222198       0.04517442      -0.06415375      -0.07195076      -0.48138462      -0.18973548
H        3.34926420       0.41750480       0.16235399       0.06051281       0.04206924       0.14039945       1.00133955       0.96183606       0.20129952
H        2.01152896      -0.39900705      -0.44355768      -0.07386234      -0.08517448       0.28651933      -0.28110122      -0.41775708       0.26929659
9
Properties=species:S:1:pos:R:3:momenta:R:3:forces:R:3 R1=H R2=H R3=CH3 R4=CH3 leaving_group=Cl nucleophile=Cl rxn=sn2 config=rcc label=H_H_CH3_CH3_Cl_Cl_sn2_rcc conformation=0 reactant_id=H_H_CH3_CH3_Cl_none_-_r product_id=H_H_CH3_CH3_none_Cl_sn2_pc mp2_author_energy=-29302.391748605172 mp2_my_energy=0 hash=59123 address=T id=71 energy=-17370.33291163153 pbc="F F F"
C        2.23131725       1.14251482       1.51020812       0.28940566       0.64779138       0.48357952      -0.20075896       0.07210200       1.21856338
C        2.73068711      -0.02034366       0.73636289      -1.12348855      -0.44997997       1.04717638      -0.06788673      -0.54074167      -0.84641964
H        3.06009330      -0.87873716       1.30398481       0.02872000      -0.01649311       0.11481382      -0.40066604      -0.31102543       0.66202045
F        4.28097951       2.40785434       0.50865806       1.12699691       0.24085464      -0.02186440       0.98733535       0.49039030      -0.45602852
Cl       0.63816757       0.64075846       2.29214382       1.46708473       0.42310566       0.22876377       0.22936226      -0.07868750       0.14649780
H        2.04028461       1.98617918       0.87647119       0.12238326       0.07703262       0.10871363      -0.11666431       0.18541131      -0.27446138
H        2.98435726       1.48920456       2.23573884       0.13186871       0.10159767      -0.08002771      -0.67351226      -0.26003293      -0.06510262
H        3.64176619       0.32261264       0.24963612      -0.12041409       0.05257605      -0.04405330      -0.21491583       0.55898376      -0.33333336
H        1.94218069      -0.32954458       0.03386779      -0.00590942      -0.03657214      -0.35460926       0.45770651      -0.11639985      -0.05173611
9
Properties=species:S:1:pos:R:3:momenta:R:3:forces:R:3 R1=H R2=H R3=CH3 R4=CH3 leaving_group=Cl nucleophile=Cl rxn=sn2 config=rcc label=H_H_CH3_CH3_Cl_Cl_sn2_rcc conformation=0 reactant_id=H_H_CH3_CH3_Cl_none_-_r product_id=H_H_CH3_CH3_none_Cl_sn2_pc mp2_author_energy=-29302.391748605172 mp2_my_energy=0 hash=59123 address=T id=71 energy=-17370.000664386207 pbc="F F F"
C        3.04816477       1.52152760       2.14447458       0.25181345       0.28563867      -0.34589343       1.42962612       1.81176104      -1.52152713
C        3.07565156       0.36486985       1.15447348      -0.55994331       0.74824690       1.31058582      -1.97399981      -0.40342470       2.07487642
H        2.96106790      -0.62680266       1.67882196       0.18875954      -0.22842360       0.00115014       0.16888735       0.88623198      -0.76702474
F        5.37483308       1.81522146       0.84760030       0.68812173      -0.57607454       0.70046428      -1.50415666      -0.01723564       0.95959744
Cl       1.52073015       1.69147961       3.17662519       2.30653333       1.64457043       1.03712806      -0.46760873      -0.92559214      -0.23228689
H        3.01463183       2.47390373       1.62721925      -0.03046671      -0.10169928      -0.05441442       0.38875961      -0.26902426      -0.33150769
H        3.80659409       1.63068297       2.88567191       0.04574130      -0.30371411       0.03687236       0.85076572      -0.72368883      -0.07727668
H        3.99602505       0.56355886       0.67212245       0.19176294       0.24714446      -0.14175116       1.89094480      -0.10338070      -0.21636274
H        2.35099802       0.53206344       0.36725726       0.12110095       0.02238825      -0.06635088      -0.78321840      -0.25564676       0.11151200
9
Properties=species:S:1:pos:R:3:momenta:R:3:forces:R:3 R1=H R2=H R3=CH3 R4=CH3 leaving_group=Cl nucleophile=Cl rxn=sn2 config=rcc label=H_H_CH3_CH3_Cl_Cl_sn2_rcc conformation=0 reactant_id=H_H_CH3_CH3_Cl_none_-_r product_id=H_H_CH3_CH3_none_Cl_sn2_pc mp2_author_energy=-29302.391748605172 mp2_my_energy=0 hash=59123 address=T id=71 energy=-17370.17222175483 pbc="F F F"
C        3.99708440       1.93196643       2.73980736       0.40966520      -0.10005809      -0.29442174      -2.49487799       0.30648007       1.23576749
C        3.24066518       0.94984741       1.88837774       0.26683445      -0.06171116       0.15519150      -2.43979634       2.05112852       0.40673360
H        2.75527671       0.22944933       2.52828400       0.26407929       0.16077544      -0.19096341       0.05945295      -0.67419266      -0.11274601
F        6.10285957       1.20578895       1.40537991       0.57185933      -0.76949288       0.43705213       1.20320111      -0.51577612      -0.84977843
Cl       2.64453205       2.68495323       3.84542607       1.69295199       2.06159903       1.86876193       0.79604232      -0.34921161      -0.15343264
H        4.33139998       2.72544894       2.11569758      -0.29237465      -0.02178023      -0.17707470       0.68408714       0.54521257      -0.04377511
H        4.80053367       1.43771080       3.30097945      -0.23810520      -0.05925751       0.12279675      -0.39868306       0.53809296      -0.11067786
H        3.98000913       0.64498167       1.23155226       0.16536492       0.38039467       0.39557191       1.49476880      -1.24920556      -1.20255035
H        2.41367318       1.47963876       1.29643175       0.22016375       0.07002919       0.05028069       1.09580507      -0.65252817       0.83045931
9
Properties=species:S:1:pos:R:3:momenta:R:3:forces:R:3 R1=H R2=H R3=CH3 R4=CH3 leaving_group=Cl nucleophile=Cl rxn=sn2 config=rcc label=H_H_CH3_CH3_Cl_Cl_sn2_rcc conformation=0 reactant_id=H_H_CH3_CH3_Cl_none_-_r product_id=H_H_CH3_CH3_none_Cl_sn2_pc mp2_author_energy=-29302.391748605172 mp2_my_energy=0 hash=59123 address=T id=71 energy=-17370.09101518268 pbc="F F F"
C        4.65755736       2.29412268       3.23174626       0.56842372      -0.01581583      -0.06053993      -2.27985054      -0.40565822      -0.54705955
C        3.59363390       1.53660632       2.43916678      -0.55491614       0.25903386      -0.43095373       0.86966237      -0.63765155       2.67400299
H        2.96605030       0.89238869       3.07890007       0.13191192       0.05762591       0.07167479      -0.24612092       0.72127869      -0.16407809
F        6.35138706       0.72947748       1.95285168       0.30308402      -0.29884496       0.59662997      -0.12829174       0.10084687       0.07544719
Cl       3.59903377       3.37544259       4.28353142       1.09100969       1.15478953       0.93511494       0.39845440       0.16043771       0.46705653
H        5.13337136       2.93587963       2.52726865       0.07074282      -0.14030886      -0.06816167       0.93302092       0.16860870      -0.02849549
H        5.27694289       1.59001276       3.75343045       0.25754918      -0.02875106      -0.03122513       0.47830454       0.26595446       0.31907160
H        4.21019943       0.88600829       1.93122388       0.05388218       0.10509039       0.28654688       1.37688356      -1.39071887      -1.70481176
H        3.10788878       2.21594306       1.82626744       0.13705393       0.02418963       0.29331359      -1.40206260       1.01690222      -1.09113342
9
Properties=species:S:1:pos:R:3:momenta:R:3:forces:R:3 R1=H R2=H R3=CH3 R4=CH3 leaving_group=Cl nucleophile=Cl rxn=sn2 config=rcc label=H_H_CH3_CH3_Cl_Cl_sn2_rcc conformation=0 reactant_id=H_H_CH3_CH3_Cl_none_-_r product_id=H_H_CH3_CH3_none_Cl_sn2_pc mp2_author_energy=-29302.391748605172 mp2_my_energy=0 hash=59123 address=T id=71 energy=-17370.245804272694 pbc="F F F"
C        5.18650063       2.56760649       3.67975550       0.41824970       0.12145828       0.46430067       0.88912056      -0.37703704      -0.60859434
C        4.05544362       1.99500468       2.92843448      -0.13734712       0.36846704       0.19592787      -1.31453149       0.82127398      -1.65725317
H        3.27283716       1.48665428       3.46319834       0.14498016       0.26469573      -0.10943828      -0.41140113       0.21063873       0.94428392
F        6.38907160       0.46444037       2.61073966       0.35564136      -0.76536254       0.14899030      -0.15727304       0.42255249       0.21054653
Cl       4.60606425       3.99000050       4.64982357       0.70623065       0.64793295       0.06249570      -0.49687283       0.45299996       0.41934387
H        5.89201830       3.00355622       2.97075300       0.13458342       0.04308540       0.03052633       0.15195412      -0.61341708       0.40190651
H        5.60996199       1.84831907       4.33754602       0.18522387      -0.07224432      -0.12101333       0.72840766      -0.31333038       0.27992638
H        4.48148030       1.18973456       2.31851016       0.10770400       0.09836288       0.45448721       0.51480436       0.43952597      -0.18325350
H        3.61201047       2.83892859       2.33289228      -0.11147388       0.27228576       0.26892462       0.09579180      -1.04320663       0.19309379
9
Properties=species:S:1:pos:R:3:momenta:R:3:forces:R:3 R1=H R2=H R3=CH3 R4=CH3 leaving_group=Cl nucleophile=Cl rxn=sn2 config=rcc label=H_H_CH3_CH3_Cl_Cl_sn2_rcc conformation=0 reactant_id=H_H_CH3_CH3_Cl_none_-_r product_id=H_H_CH3_CH3_none_Cl_sn2_pc mp2_author_energy=-29302.391748605172 mp2_my_energy=0 hash=59123 address=T id=71 energy=-17370.17403013353 pbc="F F F"
C        5.69261270       2.82490836       4.10925437      -0.74072859       0.15608732       0.32839360       0.78767574      -0.98213952       0.39846264
C        4.45320171       2.45918073       3.39335518       0.52083204       0.32679495       0.11324122      -2.33040223      -1.67443340      -1.16653084
H        3.46846476       2.32561130       3.92174529      -0.18289184       0.12773604       0.02784344       1.17721290       0.64327619       0.30473115
F        6.34518804       0.39963612       3.27720666       0.13907281      -0.04923427       0.37755496       0.03433456       0.25918770       0.10225716
Cl       5.55964147       4.44263310       4.92571906       1.56485060       0.08167410      -0.16304340      -0.45261940       0.71975323       0.12291113
H        6.49463206       2.90947114       3.40675016       0.17996091       0.01744239       0.19108783       0.38551574      -0.04427444      -0.36508269
H        6.03577359       2.12069181       4.86952942       0.05119232       0.13764564      -0.09459505      -0.54932175      -0.05051102      -0.42672985
H        4.67766268       1.41008758       3.04631936       0.17678629       0.19913922       0.23465351       0.42607332       0.77360341       0.40327889
H        4.21488131       2.99546107       2.45193393       0.11674377      -0.00665352       0.39710180       0.52153111       0.35553785       0.62670241
9
Properties=species:S:1:pos:R:3:momenta:R:3:forces:R:3 R1=H R2=H R3=CH3 R4=CH3 leaving_group=Cl nucleophile=Cl rxn=sn2 config=rcc label=H_H_CH3_CH3_Cl_Cl_sn2_rcc conformation=0 reactant_id=H_H_CH3_CH3_Cl_none_-_r product_id=H_H_CH3_CH3_none_Cl_sn2_pc mp2_author_energy=-29302.391748605172 mp2_my_energy=0 hash=59123 address=T id=71 energy=-17370.11201573719 pbc="F F F"
C        6.20219637       3.02748250       4.60469668      -0.39789551       0.13013964       0.33768484       2.61322282      -0.57197066       2.27280846
C        4.94720127       3.00792544       3.97015416      -0.00094543      -0.83698911       0.23339122      -3.00126610       0.11242831      -3.01731345
H        4.03243880       3.19056406       4.49415967       0.26688419      -0.10416215      -0.23519777      -0.30358940       0.22273719       1.10502238
F        6.27084035       0.45595552       3.99549168      -0.09062676       1.20129546       0.61519584      -0.02124370       0.34398140       0.06844012
Cl       6.52372832       4.81794959       5.12130438       2.31087024       0.47498343       0.36050769       0.01639784      -0.93019469      -0.07986716
H        6.95200950       2.64951535       3.93090409      -0.15192248       0.04248103       0.06090250       0.48337090       0.43691413      -0.18394829
H        6.26138328       2.31732458       5.45283825       0.04135006      -0.02005702       0.14934832      -0.06190162       0.89061891      -0.20395136
H        4.90244600       2.00273924       3.57406148       0.02876945       0.09107616       0.17924226      -0.00105105      -0.62609433       0.01334090
H        4.88780074       3.67555955       3.10138608       0.05055500       0.13731743      -0.10999210       0.27606031       0.12157975       0.02546840
9
Properties=species:S:1:pos:R:3:momenta:R:3:forces:R:3 R1=H R2=H R3=CH3 R4=CH3 leaving_group=Cl nucleophile=Cl rxn=sn2 config=rcc label=H_H_CH3_CH3_Cl_Cl_sn2_rcc conformation=0 reactant_id=H_H_CH3_CH3_Cl_none_-_r product_id=H_H_CH3_CH3_none_Cl_sn2_pc mp2_author_energy=-29302.391748605172 mp2_my_energy=0 hash=59123 address=T id=71 energy=-17370.12837484905 pbc="F F F"
C        6.89976240       3.35889248       5.25386124       1.01341771      -0.54035273       0.35828214      -0.50378282       0.05817390      -2.62766202
C        5.58375217       3.70729188       4.56728464      -0.55803699       0.67453059      -0.06218008      -0.67745039      -0.61291195       3.16339088
H        4.94444353       4.41445782       5.16667184      -0.13468645       0.14504109      -0.04563431       0.80063966      -0.54624700      -0.50111293
F        6.15398054       0.81417772       4.94040519       0.01238810       0.21994322       0.69404000       0.35701291       1.68300623       0.25246618
Cl       7.62926491       5.04774566       5.31492751       1.51839350       0.34311113       0.30411937       0.59195891       0.15646915       0.69077263
H        7.52146843       2.79975863       4.55221848       0.03486673       0.07368394       0.14822898      -0.22990684      -0.23253144       0.61374303
H        6.82825714       2.89627520       6.21571213       0.26794360       0.16893575       0.18896650      -0.08289778      -0.08795965       0.37347760
H        5.13950089       2.74259213       4.60503076      -0.14179705       0.08202039      -0.13583933      -0.72842396      -1.00344000      -0.38721506
H        5.68324056       4.06386585       3.59292104       0.07190312      -0.03598736       0.16225699       0.47285031       0.58544077      -1.57786031
9
Properties=species:S:1:pos:R:3:momenta:R:3:forces:R:3 R1=H R2=H R3=CH3 R4=CH3 leaving_group=Cl nucleophile=Cl rxn=sn2 config=rcc label=H_H_CH3_CH3_Cl_Cl_sn2_rcc conformation=0 reactant_id=H_H_CH3_CH3_Cl_none_-_r product_id=H_H_CH3_CH3_none_Cl_sn2_pc mp2_author_energy=-29302.391748605172 mp2_my_energy=0 hash=59123 address=T id=71 energy=-17370.231457256545 pbc="F F F"
C        7.52497399       3.75260403       5.71257047      -0.13957649      -0.44687521       0.35078026      -0.70790273       0.98957574      -1.96313978
C        6.17768251       4.28161106       5.19931632       0.10792490      -0.38443112       0.25686909       1.68055826      -1.38261446      -2.57851077
H        5.70577523       5.03005215       5.73291621       0.40593372       0.45305554       0.06258373      -0.49432162       1.86847599       1.38603582
F        6.15488897       1.52318350       5.96274871       0.46195086       1.07875188       0.73247488      -0.14341600      -0.25034114       0.09090145
Cl       8.72042151       5.12876266       5.54214369       0.82781637       0.25428468       0.22676151       0.19989481       0.28756046       0.37569164
H        7.90078829       2.96194853       5.06831451      -0.03948783      -0.13879486       0.06074238      -0.32277491      -0.02500020       0.32571871
H        7.40359908       3.40652749       6.70152232       0.13511601      -0.18196400      -0.07373892       0.28139806      -0.28599245       1.07642888
H        5.59971285       3.39616591       5.28668605      -0.08085924       0.05505920      -0.08219372      -0.71955027      -1.13043375       0.12922774
H        6.19951605       4.54797647       4.10069287       0.22249858       0.34250892      -0.06364450       0.22611439      -0.07123019       1.15764631
9
Properties=species:S:1:pos:R:3:momenta:R:3:forces:R:3 R1=H R2=H R3=CH3 R4=CH3 leaving_group=Cl nucleophile=Cl rxn=sn2 config=rcc label=H_H_CH3_CH3_Cl_Cl_sn2_rcc conformation=0 reactant_id=H_H_CH3_CH3_Cl_none_-_r product_id=H_H_CH3_CH3_none_Cl_sn2_pc mp2_author_energy=-29302.391748605172 mp2_my_energy=0 hash=59123 address=T id=71 energy=-17370.16611033482 pbc="F F F"
C        8.10920954       4.11500884       6.16732303       0.19388966       0.16029969       0.00278476       1.29585670      -0.75902667      -0.13480022
C        6.91278688       4.86831455       5.82586763       0.11050845      -0.01642606       0.48301167      -1.72255405       3.02850472       2.02632164
H        6.76757739       5.88154820       6.34555463       0.03343866       0.34200686       0.02240091       0.70184318      -1.25381303      -0.57757102
F        6.29125807       2.37736444       6.91537577       0.57614394       1.12721881       0.66192050      -0.35263917      -0.47805902       0.22552950
Cl       9.63496065       5.09288424       5.75703126       0.96027827      -0.17478202       0.43767825      -0.36821951       0.28494009       0.11937109
H        8.16466158       3.27828189       5.49567207       0.30010854      -0.34725197       0.07370234       0.02803799      -0.52754935       0.16358803
H        8.16824410       3.77238724       7.18798636      -0.14216404      -0.22263628      -0.07180226      -0.06056822       0.04942176       0.04218772
H        6.03122588       4.30286998       6.11173634       0.03896098       0.13546374      -0.02710608       0.32312831      -0.78214406       0.31941141
H        6.81783677       5.03943402       4.80690777       0.04702479       0.14537042       0.05579153       0.15511476       0.43772557      -2.18403814
9
Properties=species:S:1:pos:R:3:momenta:R:3:forces:R:3 R1=H R2=H R3=CH3 R4=CH3 leaving_group=Cl nucleophile=Cl rxn=sn2 config=rcc label=H_H_CH3_CH3_Cl_Cl_sn2_rcc conformation=0 reactant_id=H_H_CH3_CH3_Cl_none_-_r product_id=H_H_CH3_CH3_none_Cl_sn2_pc mp2_author_energy=-29302.391748605172 mp2_my_energy=0 hash=59123 address=T id=71 energy=-17370.10065824648 pbc="F F F"
C        8.75654955       4.43500419       6.67201586       0.46639708       0.89816031       0.02110244       0.03799266       0.46715851       0.97367991
C        7.80170678       5.57448753       6.48423515       0.91012446       0.09505629       0.80161865      -0.88007060       0.99519899      -3.42894439
H        7.89100338       6.51936800       6.96999519      -0.14018436      -0.05697709      -0.21711546       1.11876431       0.52355249       0.81568803
F        6.63160422       3.43588649       7.86838859       0.09655173       0.97487237       0.88628659      -0.00153582      -0.14928232       0.01449552
Cl      10.43042515       4.96071204       6.01276756       0.99578430      -0.40836057       0.44051248      -0.55917016       0.00436215       0.26706868
H        8.43392143       3.64228192       6.03315306       0.12085818      -0.06998078       0.07583620      -0.04303927      -0.62998218      -0.02577301
H        8.83857668       4.09311541       7.71482010       0.21834748      -0.35535963       0.13642827      -0.01001229       0.22337439      -0.72082811
H        6.79051724       5.27371389       6.73689960      -0.14335519      -0.07797069      -0.10739096       0.11081569      -0.94055825       0.24423551
H        7.75467814       5.84688506       5.34523716      -0.06374986       0.33569864      -0.13391355       0.22625547      -0.49382379       1.86037787
9
Properties=species:S:1:pos:R:3:momenta:R:3:forces:R:3 R1=H R2=H R3=CH3 R4=CH3 leaving_group=Cl nucleophile=Cl rxn=sn2 config=rcc label=H_H_CH3_CH3_Cl_Cl_sn2_rcc conformation=0 reactant_id=H_H_CH3_CH3_Cl_none_-_r product_id=H_H_CH3_CH3_none_Cl_sn2_pc mp2_author_energy=-29302.391748605172 mp2_my_energy=0 hash=59123 address=T id=71 energy=-17370.103820556575 pbc="F F F"
C        9.29882724       4.79947902       7.12917263       0.31614879       0.75306461       0.01278651      -1.98046280      -1.20129808      -0.81073576
C        8.69499364       6.15379664       6.93534962       0.77993465      -0.40222732       0.37869952      -1.18022655       2.49378407       1.87236808
H        9.24968931       7.03727767       7.47178956      -0.07999386       0.43431175      -0.19398614      -0.84494038      -1.90376891      -0.75265139
F        7.11966592       4.36715311       8.57607037      -0.06572552       0.68082910       0.73224034       0.53494074       0.13754474      -0.41766733
Cl      10.93277795       4.79955961       6.29536482       1.31928384      -0.35277455       0.10660671       0.01543498      -0.05342304       0.08425746
H        8.60881680       4.07427089       6.62555117      -0.11225239       0.10491644       0.05482498       0.96394927       0.56344469       0.18945689
H        9.33174699       4.38834096       8.13190191      -0.15897841      -0.10431301       0.00390310       0.23399035       0.77626914       0.12328897
H        7.63650819       6.05033401       7.37734490      -0.02381480       0.00473962       0.07200330       1.68338029      -0.12136285      -0.13453536
H        8.51660018       6.52433549       5.91676085      -0.02298441      -0.05965986       0.34246332       0.57393410      -0.69118975      -0.15378157
9
Properties=species:S:1:pos:R:3:momenta:R:3:forces:R:3 R1=H R2=H R3=CH3 R4=CH3 leaving_group=Cl nucleophile=Cl rxn=sn2 config=rcc label=H_H_CH3_CH3_Cl_Cl_sn2_rcc conformation=0 reactant_id=H_H_CH3_CH3_Cl_none_-_r product_id=H_H_CH3_CH3_none_Cl_sn2_pc mp2_author_energy=-29302.391748605172 mp2_my_energy=0 hash=59123 address=T id=71 energy=-17370.184683428673 pbc="F F F"
C        9.69651718       5.05199294       7.47834228       0.46929514       0.61719866       1.07046707      -0.08594415      -3.54747917       1.28495937
C        9.42825708       6.44246545       7.32385811       0.33500061       0.07010302       0.24133120      -3.01598694       2.34813441      -0.11765259
H       10.18136095       7.15937356       7.56006416      -0.36389415       0.07609450      -0.02214061       1.04864482       0.16494753       0.53597242
F        7.53894371       5.10202993       9.00823035       0.50322919       0.42311534       0.14226045       0.34316793       0.03080746      -0.22223571
Cl      11.22244211       4.72030175       6.52325198       0.42623845      -0.51423454       0.07065986       0.47930375      -0.21193183      -0.08179682
H        8.94261800       4.34511418       7.09149119      -0.03887814       0.25277442      -0.00867255       0.17684462       0.91479574      -0.04131723
H        9.77855303       4.70653282       8.52550067      -0.14549078      -0.12854698      -0.17568591       0.39533091       0.48808925      -0.58424738
H        8.53318911       6.56527280       8.03169702       0.30893455       0.11847533      -0.01098021       0.83843380      -0.12562890      -0.95843347
H        9.14692907       6.67044139       6.28592052       0.09191981      -0.05427334      -0.08022222      -0.17979474      -0.06173450       0.18475140
9
Properties=species:S:1:pos:R:3:momenta:R:3:forces:R:3 R1=H R2=H R3=CH3 R4=CH3 leaving_group=Cl nucleophile=Cl rxn=sn2 config=rcc label=H_H_CH3_CH3_Cl_Cl_sn2_rcc conformation=0 reactant_id=H_H_CH3_CH3_Cl_none_-_r product_id=H_H_CH3_CH3_none_Cl_sn2_pc mp2_author_energy=-29302.391748605172 mp2_my_energy=0 hash=59123 address=T id=71 energy=-17370.31378664406 pbc="F F F"
C       10.19952065       5.28342826       7.90077106      -0.00383667       0.07804075       1.19281510      -2.09113844       0.74915883       1.24044166
C       10.18394453       6.77928820       7.67972911       0.55062559       0.22481398       0.48833838       1.86403693      -0.07842792       1.77918569
H       11.14005049       7.20263840       8.09730590      -0.02232952       0.21563836      -0.01971141      -0.63625433      -0.28900605      -0.61142417
F        8.11608823       5.91890926       9.44636838       0.77633506       0.71939679       0.02393436       1.21750512      -0.42807502      -0.83275550
Cl      11.48944445       4.64019335       6.81787749      -0.02179828       0.31694631       0.38033654       0.42217872      -0.40947383      -0.32234560
H        9.23551514       4.82797640       7.72579236       0.38136882      -0.13878412      -0.10107243      -0.09819675       0.00723370      -0.50974437
H       10.39648687       4.99936878       8.92591638      -0.15340904      -0.22191203      -0.19827766       0.36119389       0.27253493       0.11092833