9
Properties=species:S:1:pos:R:3:momenta:R:3:forces:R:3 R1=H R2=H R3=CH3 R4=CH3 leaving_group=Cl nucleophile=Cl rxn=sn2 config=rcc label=H_H_CH3_CH3_Cl_Cl_sn2_rcc conformation=0 reactant_id=H_H_CH3_CH3_Cl_none_-_r product_id=H_H_CH3_CH3_none_Cl_sn2_pc mp2_author_energy=-29302.391748605172 mp2_my_energy=0 hash=59123 address=T id=71 energy=-17370.412368016237 pbc="F F F"
C        0.12542541       0.11270554      -0.00029240       0.33223961       0.24692504       0.59930218      -0.09214561       1.11788396      -0.00082481
C        1.62503867       0.00847468       0.00156754       0.65043938      -0.52998907       0.38450515      -0.06338950      -0.85342640       0.00215309
H        1.99473018      -0.50605055       0.89354482       0.08025906       0.33635964      -0.01555458       0.00320508       0.00300841       0.00517082
F        0.89788639       2.64149152      -0.00442372      -0.45998679       0.50496375      -0.37351477      -0.23271315      -0.10403772      -0.00076135
Cl      -0.69504884      -1.53494042       0.00509220       1.36201202      -1.45199076      -0.80586850       0.38207948      -0.16174994      -0.00050876
H       -0.22306082       0.64592326      -0.87549887       0.14365689       0.01815402      -0.25113860      -0.00302890      -0.00293595      -0.00472561
H       -0.22431889       0.65275656       0.87018381       0.07308704       0.24818484       0.23418092      -0.00396382      -0.00350204       0.00469305
H        1.88822962       1.08069343      -0.00059746       0.06516148      -0.15454757      -0.08777696       0.00778691       0.00253743      -0.00033365
H        1.99700981      -0.51031959      -0.88698835      -0.10077972      -0.49436360      -0.06076630       0.00216950       0.00222225      -0.00486279
9
Properties=species:S:1:pos:R:3:momenta:R:3:forces:R:3 R1=H R2=H R3=CH3 R4=CH3 leaving_group=Cl nucleophile=Cl rxn=sn2 config=rcc label=H_H_CH3_CH3_Cl_Cl_sn2_rcc conformation=0 reactant_id=H_H_CH3_CH3_Cl_none_-_r product_id=H_H_CH3_CH3_none_Cl_sn2_pc mp2_author_energy=-29302.391748605172 mp2_my_energy=0 hash=59123 address=T id=71 energy=-17370.16317687783 pbc="F F F"
C        1.05259641      -0.39485693      -0.35637180       0.36490358      -0.58950490       0.07356042      -0.56283063      -0.27136455      -0.65947873
C        2.15716804      -0.00948765       0.60922727      -0.22353268       0.14319677       0.07390125      -0.83405579      -0.94995906       1.29741670
H        2.18249006      -0.68397468       1.50990541      -0.03078470       0.13800876      -0.03650427      -0.08881504       0.67674497      -0.78429314
F        0.73934141       2.20065467      -0.50655947       0.11155745      -0.20410349      -0.02686793       0.04372188       0.84231645      -0.12103287
Cl       0.66106916      -2.18918346      -0.16378001       1.62737960      -0.71246137      -0.25496362       0.36691386      -0.49723749       0.09633742
H        1.39550642      -0.31878891      -1.41596338       0.15848862      -0.19869742       0.08438224      -0.64467575       0.39459653       1.16592086
H        0.10873585       0.13073953      -0.17194397       0.07973006      -0.02862077      -0.14430168       0.76344676      -0.09224488      -0.34084612
H        1.95764007       1.03123796       0.91477302       0.06997557       0.05192387      -0.05470403       0.15952401      -0.27399974      -0.47791535
H        3.08775322      -0.10646220       0.09298972      -0.02089432       0.12946529      -0.08950774       0.79677069       0.17114777      -0.17610878
9
Properties=species:S:1:pos:R:3:momenta:R:3:forces:R:3 R1=H R2=H R3=CH3 R4=CH3 leaving_group=Cl nucleophile=Cl rxn=sn2 config=rcc label=H_H_CH3_CH3_Cl_Cl_sn2_rcc conformation=0 reactant_id=H_H_CH3_CH3_Cl_none_-_r product_id=H_H_CH3_CH3_none_Cl_sn2_pc mp2_author_energy=-29302.391748605172 mp2_my_energy=0 hash=59123 address=T id=71 energy=-17370.30329743405 pbc="F F F"
C        1.66312336      -0.83658306      -0.52016149       0.16609821      -0.13965763       1.66147995      -0.39278764       1.74522692       1.31505908
C        2.03045676      -0.17091475       0.82402591      -0.16817213       0.28800256      -0.05612910      -0.84408358       0.00396097      -0.59887694
H        1.58178497      -0.76705834       1.64380029      -0.01785847      -0.24579177       0.20038292       0.45611428       0.48200658      -0.15405768
F        0.84987677       1.65955401      -0.88768177       0.04673515      -0.31365630      -1.06681431       0.15775163      -0.49405228      -0.17337662
Cl       2.01074429      -2.60587926      -0.26326759       2.45254739      -0.77785319      -1.18243568       0.25847674      -0.39326282      -0.31557130
H        2.23760022      -0.41766194      -1.33065048       0.02469025      -0.10330903       0.22884241       0.16133801      -0.15527821      -0.24240532
H        0.61497784      -0.70537142      -0.73605871       0.36086302      -0.12540623       0.06757472      -0.11331523      -0.01448962      -0.06678131
H        1.64169088       0.86735031       0.74384820      -0.00146489      -0.10027933      -0.11253200      -0.32178156      -0.65103468      -0.11020794
H        3.09644243      -0.04254342       0.89830153      -0.07704407      -0.13914982      -0.22937186       0.63828735      -0.52307686       0.34621803
9
Properties=species:S:1:pos:R:3:momenta:R:3:forces:R:3 R1=H R2=H R3=CH3 R4=CH3 leaving_group=Cl nucleophile=Cl rxn=sn2 config=rcc label=H_H_CH3_CH3_Cl_Cl_sn2_rcc conformation=0 reactant_id=H_H_CH3_CH3_Cl_none_-_r product_id=H_H_CH3_CH3_none_Cl_sn2_pc mp2_author_energy=-29302.391748605172 mp2_my_energy=0 hash=59123 address=T id=71 energy=-17369.99991418196 pbc="F F F"
C        2.47159729      -1.32425222      -0.50646273       0.30504166      -0.62387254      -0.43790870      -0.20983073      -2.71875733       0.15792106
C        2.12519717      -1.02669460       0.88055855      -0.08270042      -0.77705485       0.20573064       0.22337560       2.36589985       1.56669377
H        2.14202546      -1.92390166       1.43349398      -0.02052109      -0.03450108       0.27177332      -0.29462701      -1.09723975       0.92120227
F        1.02797495       0.60972075      -1.54844596       0.39509630      -0.72341460      -0.35767113      -0.19190511       0.14608903       0.10786048
Cl       3.74952302      -2.76539040      -0.32775431       3.12910238       0.18659662       0.29078027       0.33314769       0.23397975      -0.31215375
H        2.79701038      -0.53330277      -1.09245850      -0.21987988       0.08691425      -0.01807897       0.72430468       1.27902287      -1.13763719
H        1.63123785      -1.83079377      -0.95891441      -0.21074744       0.06777066      -0.08712410       0.03241651       0.27066288      -0.51580698
H        1.10364497      -0.61797806       0.85596182      -0.21005842       0.04085198      -0.17355348       0.48962970       0.24612209       0.14371861
H        2.86624311      -0.33163744       1.41645657       0.23757725      -0.19946331      -0.27710757      -1.10651133      -0.72577940      -0.93179827
9
Properties=species:S:1:pos:R:3:momenta:R:3:forces:R:3 R1=H R2=H R3=CH3 R4=CH3 leaving_group=Cl nucleophile=Cl rxn=sn2 config=rcc label=H_H_CH3_CH3_Cl_Cl_sn2_rcc conformation=0 reactant_id=H_H_CH3_CH3_Cl_none_-_r product_id=H_H_CH3_CH3_none_Cl_sn2_pc mp2_author_energy=-29302.391748605172 mp2_my_energy=0 hash=59123 address=T id=71 energy=-17370.08008624453 pbc="F F F"
C        3.31387823      -1.87470821      -0.83715175       0.19417546      -0.79917697      -0.19933400      -1.93893202       0.36842364       0.74891008
C        2.37300244      -1.94176381       0.38739423       0.45558857      -0.50951167      -0.48881561       0.12050779      -0.23593916      -1.79245463
H        2.00594798      -2.94079353       0.63855330       0.07116684       0.18272625      -0.38598800       0.59311978      -0.09921561       0.18986436
F        1.21193586      -0.47776808      -1.72644489      -0.01853822      -0.66382048       0.17512837       1.52572638      -1.01787063       0.49790573
Cl       5.06291172      -2.67013162      -0.19959264       1.85571577       0.46461702       0.95808650      -0.29292199       0.37902508      -0.04203186
H        3.36334786      -0.85946218      -1.21333991      -0.03391601      -0.06200360      -0.05731934       0.30913351      -0.13074265      -0.03752688
H        3.10665679      -2.59680349      -1.61153325      -0.30041425      -0.04054119      -0.37011631      -0.36906663       0.28493591      -0.09044211
H        1.52899099      -1.42808165      -0.10462798       0.22191077      -0.10139203      -0.11500778      -0.06559838       0.41114702       0.16355165
H        2.76453163      -1.38565412       1.22435891       0.15698234      -0.01873577       0.02660603       0.11803156       0.04023640       0.36222366
9
Properties=species:S:1:pos:R:3:momenta:R:3:forces:R:3 R1=H R2=H R3=CH3 R4=CH3 leaving_group=Cl nucleophile=Cl rxn=sn2 config=rcc label=H_H_CH3_CH3_Cl_Cl_sn2_rcc conformation=0 reactant_id=H_H_CH3_CH3_Cl_none_-_r product_id=H_H_CH3_CH3_none_Cl_sn2_pc mp2_author_energy=-29302.391748605172 mp2_my_energy=0 hash=59123 address=T id=71 energy=-17369.952304398346 pbc="F F F"
C        3.95436658      -2.25300501      -1.02898013      -0.30666552      -0.70396736       0.66005282       0.60743389       0.84968397       0.56157807
C        3.06725930      -2.98800788      -0.07614931       0.89658953      -0.54268992      -0.53994544       0.91481934      -0.92529540       0.26833797
H        3.25583271      -4.10148246      -0.08644350       0.11415675       0.00041379       0.05868089      -0.09973719       1.22018129       0.10154041
F        1.62558225      -1.46624490      -1.91434137       0.78857325      -0.60319641      -0.04994919      -0.82597342       0.28041843      -0.46515705
Cl       5.81197191      -2.45743700      -0.10419945       0.17467280       0.48164429      -0.25787825       0.19207772      -0.28127167      -0.07783592
H        3.89070023      -1.17221856      -1.02311313       0.13019647       0.19562984       0.02136544      -0.34260371      -0.25303399       0.15813141
H        4.15105623      -2.58314660      -2.01625088      -0.05644928      -0.00102404       0.02384195      -0.05710696      -0.64209396      -0.56766428
H        2.03025599      -2.75640067      -0.29036844      -0.11602006       0.14678618      -0.14623938      -0.15781081       0.16534251      -0.52658147
H        3.33769847      -2.55174907       0.87902121       0.09580328       0.00299011      -0.07193357      -0.23109885      -0.41393118       0.54765087
9
Properties=species:S:1:pos:R:3:momenta:R:3:forces:R:3 R1=H R2=H R3=CH3 R4=CH3 leaving_group=Cl nucleophile=Cl rxn=sn2 config=rcc label=H_H_CH3_CH3_Cl_Cl_sn2_rcc conformation=0 reactant_id=H_H_CH3_CH3_Cl_none_-_r product_id=H_H_CH3_CH3_none_Cl_sn2_pc mp2_author_energy=-29302.391748605172 mp2_my_energy=0 hash=59123 address=T id=71 energy=-17369.95440971395 pbc="F F F"
C        4.26727903      -2.22693284      -1.04474596       0.96485753      -1.00646703       0.50673354       0.59764812       1.70123049       0.39411492
C        3.96075174      -3.61626613      -0.80336077       1.04862503      -0.43829629       0.14853520      -0.29180752      -0.09631937       0.78957069
H        4.72080833      -4.18247198      -1.26345847       0.05103280      -0.06895807      -0.26077580       0.65058805      -0.88701272      -0.84732722
F        1.89768947      -2.59571418      -2.09685436       0.16466975      -0.63383584      -0.14496951      -0.88918657       0.02020520      -0.53356274
Cl       6.59415359      -2.44017649       0.05335797      -0.31528950       0.28403449      -0.33960323       0.27931863      -0.02659384       0.13664838
H        4.11537046      -1.44878977      -0.27714594      -0.11512002       0.06391761      -0.30953498      -0.00136592      -0.72159363      -0.38531877
H        3.90168919      -1.93388302      -2.00279419       0.13952717      -0.08706882       0.21944289      -0.13307479       0.39558356      -0.45120442
H        2.94918730      -3.67448349      -1.26971613       0.47617517       0.32112799      -0.12025402       0.07766171      -0.12671471       0.17690938
H        4.01540683      -3.83378598       0.24447516       0.25604793      -0.02264638      -0.16824249      -0.28978171      -0.25878498       0.72016978
9
Properties=species:S:1:pos:R:3:momenta:R:3:forces:R:3 R1=H R2=H R3=CH3 R4=CH3 leaving_group=Cl nucleophile=Cl rxn=sn2 config=rcc label=H_H_CH3_CH3_Cl_Cl_sn2_rcc conformation=0 reactant_id=H_H_CH3_CH3_Cl_none_-_r product_id=H_H_CH3_CH3_none_Cl_sn2_pc mp2_author_energy=-29302.391748605172 mp2_my_energy=0 hash=59123 address=T id=71 energy=-17370.07774974565 pbc="F F F"
C        4.63301443      -2.86056009      -0.92435275      -0.44558752      -0.76889964      -0.29720185      -0.89332749       1.77306742       1.20876406
C        5.07939290      -4.08402159      -1.50932777       1.16545121      -0.31451336      -0.14784345       2.41899397      -2.09685765      -1.07176876
H        6.13834666      -4.27771044      -1.21707911      -0.05760308      -0.06216886      -0.07084315      -1.04114312      -0.12959690      -0.14708487
F        2.51056496      -3.71722496      -2.25854200       0.03797985      -0.66034321       0.15704563       0.19833167       0.22189856       0.22881936
Cl       7.25664769      -2.33429693       0.10168819       0.83023429       0.15825694       0.09009108      -0.06434426      -0.02206283      -0.12257028
H        4.87010453      -2.54399821       0.11303517       0.02620258      -0.05262435      -0.19115090      -0.23102074      -0.73986376      -1.00939086
H        3.63025637      -2.61967375      -1.25804456       0.30046094       0.06856940       0.13308777      -0.35735282       0.09764535      -0.11317995
H        5.08881462      -4.04588221      -2.62904433       0.53756200       0.20419422      -0.20407586      -0.18921475       0.23844929       0.83302879
H        4.43538453      -4.94566245      -1.25525149       0.01237632      -0.00398717       0.10845679       0.15907754       0.65732051       0.19338250
9
Properties=species:S:1:pos:R:3:momenta:R:3:forces:R:3 R1=H R2=H R3=CH3 R4=CH3 leaving_group=Cl nucleophile=Cl rxn=sn2 config=rcc label=H_H_CH3_CH3_Cl_Cl_sn2_rcc conformation=0 reactant_id=H_H_CH3_CH3_Cl_none_-_r product_id=H_H_CH3_CH3_none_Cl_sn2_pc mp2_author_energy=-29302.391748605172 mp2_my_energy=0 hash=59123 address=T id=71 energy=-17370.2227278533 pbc="F F F"
C        5.20700064      -3.52577794      -1.01407332       1.03553500       0.06195946       0.29853407       0.44100950       0.57279770       2.56631437
C        5.92219813      -4.22586546      -2.07454768       0.43617256      -0.07606448      -0.73073020       0.07047200      -0.59163293      -0.55268070
H        6.63638574      -4.91760842      -1.63873425      -0.12849288      -0.00236272      -0.11289619      -0.01481922      -0.27617280       0.09757944
F        3.21269865      -4.72738981      -2.24992800       0.42676766      -0.41714557       0.21972441      -0.35648476      -0.05889675      -0.13000720
Cl       7.68320854      -2.28779534       0.12465244      -0.59476622      -0.27815098      -0.12558006      -0.53093649      -0.32462417      -0.35505695
H        5.44757408      -3.79823427       0.01821308       0.21226890       0.12972749      -0.02690880       0.43739108       0.16192489      -0.44547543
H        4.14266695      -3.45235306      -1.05065812       0.33316941      -0.18432365      -0.01623390      -0.62768791      -0.11511367      -0.94993238
H        6.51426895      -3.53234543      -2.64634062       0.03466080      -0.02012635       0.21097434       0.12937054       0.30123140      -0.54612838
H        5.12715930      -4.74707224      -2.66293196      -0.03793529      -0.23485874      -0.01827814       0.45168528       0.33048633       0.31538722
9
Properties=species:S:1:pos:R:3:momenta:R:3:forces:R:3 R1=H R2=H R3=CH3 R4=CH3 leaving_group=Cl nucleophile=Cl rxn=sn2 config=rcc label=H_H_CH3_CH3_Cl_Cl_sn2_rcc conformation=0 reactant_id=H_H_CH3_CH3_Cl_none_-_r product_id=H_H_CH3_CH3_none_Cl_sn2_pc mp2_author_energy=-29302.391748605172 mp2_my_energy=0 hash=59123 address=T id=71 energy=-17370.30892039138 pbc="F F F"
C        5.65867693      -4.12697020      -0.90982013       0.24186794      -0.27852651       0.46172967      -1.29950488       0.29350270       0.38378641
C        6.39403209      -4.07734461      -2.16319546      -0.29599726      -0.53780011       0.28486467      -0.02538859      -1.33982719      -0.37016407
H        5.68799472      -4.34338074      -2.97159942       0.06235655       0.24475502      -0.16229652       0.31533580      -0.29291212       0.43886142
F        4.21376824      -5.78179933      -2.38771416       1.21323469      -1.03927649      -0.52286005       0.04745848       0.29533676       0.17170599
Cl       8.07815045      -2.33045804      -0.03084432       0.96032266      -0.05500485      -0.32000564      -0.68973281      -0.44663681      -0.11637636
H        6.15152482      -4.18975533       0.02569432       0.18455360       0.00293938      -0.33678082       0.82755891       0.22598031       0.51432020
H        4.74389535      -4.74016322      -0.96994154       0.03237658       0.23972794      -0.07700170       0.36366811       0.04465331      -0.31838083
H        7.13018046      -4.89921525      -1.97969984      -0.18172421       0.14440704       0.17552490      -0.22940538       0.72718037      -0.74528055
H        6.81926880      -3.11803132      -2.35298255      -0.12210356       0.03292527       0.12917980       0.69001036       0.49272268       0.04152778
9
Properties=species:S:1:pos:R:3:momenta:R:3:forces:R:3 R1=H R2=H R3=CH3 R4=CH3 leaving_group=Cl nucleophile=Cl rxn=sn2 config=rcc label=H_H_CH3_CH3_Cl_Cl_sn2_rcc conformation=0 reactant_id=H_H_CH3_CH3_Cl_none_-_r product_id=H_H_CH3_CH3_none_Cl_sn2_pc mp2_author_energy=-29302.391748605172 mp2_my_energy=0 hash=59123 address=T id=71 energy=-17370.228093242244 pbc="F F F"
C        6.86431789      -4.74511069      -1.28915581       0.28216960       0.57514865      -0.20390983      -3.23361360      -2.05865265      -1.51952694
C        7.02041466      -4.28809613      -2.71647161      -0.24403930      -1.34645044       0.03507639       1.19377509       0.15266835       0.73229055
H        7.97588181      -4.73637470      -3.04213198       0.01780555      -0.20212198      -0.10708300      -0.10045038       0.42726834       0.08425947
F        5.36908891      -6.71711103      -2.19178561       1.98418420      -0.70841795      -0.28952597      -0.04218684      -0.07770426      -0.19884754
Cl       8.38650617      -2.49366540      -0.03461366       1.23011215       0.08223295       0.28181893       0.40332885       0.66094836       0.22862942
H        7.67394899      -4.85072229      -0.68025961       0.10449801      -0.16653805      -0.16604080       2.31644848       0.38451918       1.13968978
H        6.30267900      -5.73913411      -1.24921243      -0.22114132      -0.18612928      -0.08557763       0.16740294       1.16524434      -0.35842148
H        7.07287308      -3.17712104      -2.76451099      -0.25775637       0.17242134       0.12308359      -0.12560121      -0.91110930      -0.28566541
H        6.28027918      -4.76226140      -3.35322051       0.09541352       0.00092645      -0.11279541      -0.57910332       0.25681764       0.17759214
9
Properties=species:S:1:pos:R:3:momenta:R:3:forces:R:3 R1=H R2=H R3=CH3 R4=CH3 leaving_group=Cl nucleophile=Cl rxn=sn2 config=rcc label=H_H_CH3_CH3_Cl_Cl_sn2_rcc conformation=0 reactant_id=H_H_CH3_CH3_Cl_none_-_r product_id=H_H_CH3_CH3_none_Cl_sn2_pc mp2_author_energy=-29302.391748605172 mp2_my_energy=0 hash=59123 address=T id=71 energy=-17370.299311667273 pbc="F F F"
C        7.90138876      -5.38206542      -1.39015684      -0.03999300       0.21121533      -0.26410121      -0.72664089      -0.82314773       1.04598606
C        7.20233586      -4.65136395      -2.46861309       0.26151265      -0.54316413      -0.71721496      -0.48775236       0.01518278      -0.79268764
H        7.84365118      -3.79078740      -2.70025463       0.06187232      -0.06810652      -0.00229082      -0.60745555      -0.07623300      -0.33625777
F        6.91294726      -7.57522239      -2.44823100       1.37149364      -0.95697092       0.38282652      -0.19530316      -0.30529728      -0.29065118
Cl       8.81415199      -2.66844233      -0.27649741       1.07478956      -0.13523464       0.48262430       0.27703631       0.65926785       0.11920099
H        7.92583623      -4.75203847      -0.46784841      -0.13261959      -0.02029357      -0.02377797       0.05462253      -1.41413742      -0.63435514
H        7.63353021      -6.52050281      -1.39358413       0.19809175       0.19207245      -0.37759226       0.38961567       1.72246564       0.23677718
H        6.20211969      -4.31620480      -2.10873558      -0.22550192      -0.10649422       0.13110218       0.77042365      -0.13689205      -0.00186530
H        6.99616427      -5.30575603      -3.35123186      -0.25661074       0.05138798      -0.01750568       0.52545381       0.35879122       0.65385280
9
Properties=species:S:1:pos:R:3:momenta:R:3:forces:R:3 R1=H R2=H R3=CH3 R4=CH3 leaving_group=Cl nucleophile=Cl rxn=sn2 config=rcc label=H_H_CH3_CH3_Cl_Cl_sn2_rcc conformation=0 reactant_id=H_H_CH3_CH3_Cl_none_-_r product_id=H_H_CH3_CH3_none_Cl_sn2_pc mp2_author_energy=-29302.391748605172 mp2_my_energy=0 hash=59123 address=T id=71 energy=-17370.34285328283 pbc="F F F"
C        8.88611127      -5.85542437      -1.35165268       0.76433588       0.12719544      -0.92554713      -1.29275584      -2.37749614      -1.41511208
C        7.83144141      -5.34118358      -2.30834854       0.45420714      -0.08312119      -0.25648651       0.98750170      -1.93326131      -0.06812977
H        8.15568621      -4.36163634      -2.60658306       0.01198953       0.15392989      -0.20999911      -0.52476916       0.45784018      -0.40570958
F        8.22671987      -8.08198431      -2.69693871       1.10038133      -0.48465688       0.89531897       0.50595338       1.60510879       1.07783429
Cl       9.06213261      -2.87334559      -0.51117533       0.10055682      -1.03631587       0.26283832       0.01070275       0.50925945       0.11931305
H        9.39404985      -5.15028736      -0.71168768      -0.06579336      -0.09576239      -0.26334923      -0.02725893      -0.52769425       0.12536210
H        8.83419379      -6.95751098      -1.19224033       0.12227864      -0.04031709       0.07722493       0.20486544       0.81933020      -0.06386157
H        6.84469286      -5.44091105      -1.87213373       0.07917291       0.04315423       0.34562137      -0.13709304       0.63731034       0.42817569
H        7.80533565      -6.14232813      -3.09540043      -0.14678328      -0.02351342      -0.35038423       0.27285370       0.80960275       0.20212787
9
Properties=species:S:1:pos:R:3:momenta:R:3:forces:R:3 R1=H R2=H R3=CH3 R4=CH3 leaving_group=Cl nucleophile=Cl rxn=sn2 config=rcc label=H_H_CH3_CH3_Cl_Cl_sn2_rcc conformation=0 reactant_id=H_H_CH3_CH3_Cl_none_-_r product_id=H_H_CH3_CH3_none_Cl_sn2_pc mp2_author_energy=-29302.391748605172 mp2_my_energy=0 hash=59123 address=T id=71 energy=-17370.298491876354 pbc="F F F"
C        9.66597995      -6.29330155      -1.33232287       0.33454974       0.42694301       0.64514239      -1.90886972       2.01356506       1.25038439
C        8.29612533      -6.29464703      -2.03940838       0.44829224      -0.81098851      -0.09440989       1.05388086      -0.60599997      -0.09146113
H        8.38548650      -7.19801736      -2.69657914      -0.05534016      -0.05925922      -0.18605254      -0.44057397       0.23783833       0.69916288
F        9.90320010      -8.35193474      -2.95616384       1.26528314      -0.62020298      -0.73632419       0.15205530      -0.44006705      -0.16833430
Cl       9.42711289      -3.20087348      -0.80384331       0.25123009      -0.79557417      -0.70529379      -0.07783760      -0.29395451       0.05630284
H        9.66129335      -6.00958106      -0.26140298       0.28582783       0.12538000       0.12809197       0.03565527      -0.11250153      -0.94771891
H       10.37020104      -6.99933567      -1.65693956      -0.22570619      -0.01344998       0.05462588       0.53828575      -1.01836737      -0.63851694
H        8.15023855      -5.45988783      -2.69352607       0.03589016       0.10826800       0.32879310       0.42554133       0.79670525      -0.34032440
H        7.45374016      -6.22136892      -1.35071896      -0.03736221       0.26946278       0.16131709       0.22186278      -0.57721821       0.18050556
9
Properties=species:S:1:pos:R:3:momenta:R:3:forces:R:3 R1=H R2=H R3=CH3 R4=CH3 leaving_group=Cl nucleophile=Cl rxn=sn2 config=rcc label=H_H_CH3_CH3_Cl_Cl_sn2_rcc conformation=0 reactant_id=H_H_CH3_CH3_Cl_none_-_r product_id=H_H_CH3_CH3_none_Cl_sn2_pc mp2_author_energy=-29302.391748605172 mp2_my_energy=0 hash=59123 address=T id=71 energy=-17370.405282644566 pbc="F F F"
C       10.59656579      -6.30579117      -2.28102508      -0.45073387      -1.07735641       0.19667859      -0.52561687       1.77683920       1.18119500
C        9.27971430      -6.88543741      -1.83739796       0.71338592      -0.03940939      -0.37114740       1.18054224      -0.13169478      -0.70287200
H        9.51237513      -7.67167779      -1.12584736       0.21266981      -0.05400113       0.21862377      -0.14593328       0.09406258       0.21323942
F       11.02062765      -8.83491902      -2.79682582       0.96044720       0.16947149      -0.23456955       0.23219125      -1.10346707      -0.28306216
Cl       9.56173691      -3.59966882      -0.88034536       0.41773582       0.20449208      -0.16727728       0.08473540      -0.25983422      -0.21740853
H       10.90210289      -5.44330459      -1.71121818      -0.45718280      -0.18298175      -0.10860562       0.11813825       0.09711943      -0.04215674
H       11.37255365      -7.03714978      -2.49730391       0.15551575      -0.06713393       0.01936189      -0.15790974      -0.29266870      -0.16459997
H        8.85560206      -7.32497786      -2.71592054       0.13831138      -0.03145263       0.05228704      -0.56291286      -0.54004536      -0.47223644
H        8.62819380      -6.12195451      -1.47539854       0.15772956      -0.02058301       0.07035198      -0.22323439       0.35968892       0.48790141
9
Properties=species:S:1:pos:R:3:momenta:R:3:forces:R:3 R1=H R2=H R3=CH3 R4=CH3 leaving_group=Cl nucleophile=Cl rxn=sn2 config=rcc label=H_H_CH3_CH3_Cl_Cl_sn2_rcc conformation=0 reactant_id=H_H_CH3_CH3_Cl_none_-_r product_id=H_H_CH3_CH3_none_Cl_sn2_pc mp2_author_energy=-29302.391748605172 mp2_my_energy=0 hash=59123 address=T id=71 energy=-17370.225487612945 pbc="F F F"
C       11.26039302      -6.46415432      -2.15165165       0.25241532      -0.90561049      -1.35522590       1.17361646      -2.86772577      -2.18761035
C       10.20161384      -7.29373071      -1.66097044       1.33220148      -0.63776438      -0.42131969      -1.94549057       0.58793349       0.42647660
H       10.37371009      -7.36342870      -0.62856368       0.07432866       0.00680082      -0.09811046       0.55152798      -0.52392324       1.50619577
F       11.85793232      -8.98244025      -2.93515345       0.86191803      -0.62170195       0.59933378      -0.26030231       2.42191174       0.58748602
Cl       9.71278390      -4.03221589      -1.15020016      -0.20159465       0.75210576       0.73264372      -0.35153622       0.43562290       0.20905275
H       11.53549816      -5.50731138      -1.77115780      -0.04128166       0.25869405      -0.01891120       0.10330694       0.24414133       0.38959559
H       11.97735875      -7.12974387      -2.58001151      -0.06747347      -0.05150943       0.16140598       1.10766417       0.01367010      -0.35469486
H       10.34936663      -8.25773374      -2.15914177       0.46298752      -0.23207586       0.02890062      -0.44280012      -0.24774906       0.04769340
H        9.20070733      -6.85520401      -1.68196652      -0.06958102      -0.11751973      -0.08569617       0.06401367      -0.06388149      -0.62419493
9
Properties=species:S:1:pos:R:3:momenta:R:3:forces:R:3 R1=H R2=H R3=CH3 R4=CH3 leaving_group=Cl nucleophile=Cl rxn=sn2 config=rcc label=H_H_CH3_CH3_Cl_Cl_sn2_rcc conformation=0 reactant_id=H_H_CH3_CH3_Cl_none_-_r product_id=H_H_CH3_CH3_none_Cl_sn2_pc mp2_author_energy=-29302.391748605172 mp2_my_energy=0 hash=59123 address=T id=71 energy=-17370.311269626676 pbc="F F F"
C       11.77786387      -6.96563281      -2.41764456       0.28751451       0.59049711       0.44452824      -3.04457486       3.01533997       0.96356320
C       11.28183312      -7.72063629      -1.22710872       0.60009766      -0.23217878      -0.03975893       1.06389423      -0.32829927       0.02085661
H       11.91400201      -7.53179650      -0.34668814       0.14050931      -0.16695548      -0.22809149       0.16210494      -0.36014609      -0.22083414
F       13.20165668      -9.01561290      -3.03042180       0.78168503      -0.54759165      -0.08789729       1.58107082      -2.50635190      -0.58975939
Cl      10.00633272      -4.61409049      -1.45082810      -0.23297436      -0.75268609      -0.64583569      -0.09669534       0.17121334       0.07833459
H       10.94278997      -6.40439573      -2.88941526       0.25175255       0.04886234      -0.08231306       1.13463942      -0.62213076      -0.04220516
H       12.52479264      -7.54970090      -2.96294663      -0.01765234      -0.19200009      -0.07548217       0.22710401       0.05577880      -0.52151556