9
Properties=species:S:1:pos:R:3:momenta:R:3:forces:R:3 R1=H R2=H R3=CH3 R4=CH3 leaving_group=Cl nucleophile=Cl rxn=sn2 config=rcc label=H_H_CH3_CH3_Cl_Cl_sn2_rcc conformation=0 reactant_id=H_H_CH3_CH3_Cl_none_-_r product_id=H_H_CH3_CH3_none_Cl_sn2_pc mp2_author_energy=-29302.391748605172 mp2_my_energy=0 hash=59123 address=T id=71 energy=-17370.412368016237 pbc="F F F"
C        0.12542541       0.11270554      -0.00029240      -1.22560989      -0.14614681      -0.34857954      -0.09214561       1.11788396      -0.00082481
C        1.62503867       0.00847468       0.00156754      -0.89629887      -0.32669233      -0.49734426      -0.06338950      -0.85342640       0.00215309
H        1.99473018      -0.50605055       0.89354482      -0.04538375       0.10454132      -0.11415066       0.00320508       0.00300841       0.00517082
F        0.89788639       2.64149152      -0.00442372       0.04315860      -1.87249599       0.51479252      -0.23271315      -0.10403772      -0.00076135
Cl      -0.69504884      -1.53494042       0.00509220      -1.47177005       0.13949361      -0.19642376       0.38207948      -0.16174994      -0.00050876
H       -0.22306082       0.64592326      -0.87549887       0.17763321       0.32210095      -0.12459201      -0.00302890      -0.00293595      -0.00472561
H       -0.22431889       0.65275656       0.87018381      -0.27243322      -0.02066324      -0.02414809      -0.00396382      -0.00350204       0.00469305
H        1.88822962       1.08069343      -0.00059746      -0.10822904       0.02896451      -0.23050456       0.00778691       0.00253743      -0.00033365
H        1.99700981      -0.51031959      -0.88698835       0.11878158      -0.14877890       0.06154860       0.00216950       0.00222225      -0.00486279
9
Properties=species:S:1:pos:R:3:momenta:R:3:forces:R:3 R1=H R2=H R3=CH3 R4=CH3 leaving_group=Cl nucleophile=Cl rxn=sn2 config=rcc label=H_H_CH3_CH3_Cl_Cl_sn2_rcc conformation=0 reactant_id=H_H_CH3_CH3_Cl_none_-_r product_id=H_H_CH3_CH3_none_Cl_sn2_pc mp2_author_energy=-29302.391748605172 mp2_my_energy=0 hash=59123 address=T id=71 energy=-17370.199181027077 pbc="F F F"
C       -0.74024923      -0.37769816      -0.33608104      -0.38121686      -0.62387480      -0.37239893      -0.64766384       2.09692016       1.59732645
C        0.56702530      -0.96758774      -0.70067881       0.26145769      -0.32844394      -0.34253373      -0.12241969      -0.65151696      -0.30845891
H        0.87511527      -1.74539636       0.00937716       0.18262405      -0.04906095      -0.00913139      -0.05604799       0.10469187      -0.13166245
F        0.66017395       1.81516170       0.25720965      -0.40194467      -1.15823844       0.04809825      -0.71477674      -1.40618887      -0.44971609
Cl      -2.13955128      -1.70617898      -0.31832705      -3.21952157      -0.10314593      -0.23770025       1.28828509       0.38111302       0.11364291
H       -1.19077285       0.30699900      -1.05069398       0.01230596      -0.00413299      -0.06159528       0.72628480       0.05605336       0.14119222
H       -0.60064423       0.17041560       0.62314563      -0.09535826       0.00691951       0.01450219      -0.64737870      -0.47896608      -0.70261684
H        1.24236561      -0.10982758      -0.65200638      -0.06558956       0.04916302       0.12047737      -0.08598934       0.18746080       0.06875559
H        0.51744587      -1.37578474      -1.70097156      -0.07799371       0.23632190      -0.14651539       0.25970640      -0.28956730      -0.32846288
9
Properties=species:S:1:pos:R:3:momenta:R:3:forces:R:3 R1=H R2=H R3=CH3 R4=CH3 leaving_group=Cl nucleophile=Cl rxn=sn2 config=rcc label=H_H_CH3_CH3_Cl_Cl_sn2_rcc conformation=0 reactant_id=H_H_CH3_CH3_Cl_none_-_r product_id=H_H_CH3_CH3_none_Cl_sn2_pc mp2_author_energy=-29302.391748605172 mp2_my_energy=0 hash=59123 address=T id=71 energy=-17370.114857468037 pbc="F F F"
C       -1.92506077      -0.84126556      -0.36660106      -0.56101423      -0.72030738       0.05850019      -0.57374496       0.42292015      -1.75116891
C       -0.96171353      -1.68679730      -1.15692465      -0.63489828      -0.28155990       0.24258674       1.38304080       0.29828343       0.24557741
H       -1.03935456      -2.70434210      -0.80464383      -0.09389075      -0.06303482      -0.13994345       0.47611861      -0.48638546       0.44035809
F        0.33066680       0.36330113       0.25001380       0.28435602      -0.73097177       0.04717549       0.11122220       0.21237805       0.14181342
Cl      -3.46871531      -1.79406580      -0.79242302      -3.55872260      -0.17570006      -1.18666062      -0.74718783       0.02624677       0.85689427
H       -2.16265005       0.10951780      -0.86748164      -0.02968858      -0.24337623       0.01929731       0.71018394      -0.24245863       0.74600226
H       -1.66076476      -0.67913494       0.68950796       0.17325108      -0.16985075      -0.05961289      -0.36630457      -0.40218175      -0.61135526
H        0.04056698      -1.21372350      -0.97837249       0.09662997       0.06614205      -0.16838897      -0.77515991      -0.38774690      -0.01062995
H       -1.18358846      -1.77949480      -2.22121679      -0.10972830       0.00590560       0.03119565      -0.21816828       0.55894436      -0.05749132
9
Properties=species:S:1:pos:R:3:momenta:R:3:forces:R:3 R1=H R2=H R3=CH3 R4=CH3 leaving_group=Cl nucleophile=Cl rxn=sn2 config=rcc label=H_H_CH3_CH3_Cl_Cl_sn2_rcc conformation=0 reactant_id=H_H_CH3_CH3_Cl_none_-_r product_id=H_H_CH3_CH3_none_Cl_sn2_pc mp2_author_energy=-29302.391748605172 mp2_my_energy=0 hash=59123 address=T id=71 energy=-17370.342608146453 pbc="F F F"
C       -2.94970661      -1.75463191      -0.66070062      -0.86618493      -0.44262167       0.55711690       0.66500786       0.83285232       0.39850767
C       -2.24103411      -2.52332087      -1.72994350      -1.25337610      -0.12569571      -0.59312153       0.15166186       0.01806353       0.47856701
H       -2.53019555      -3.56995724      -1.74925399      -0.09993549      -0.04097574       0.03153121      -0.48040889      -0.07328463      -0.45177875
F       -0.51710573      -1.18477046       0.20613322      -1.24821580      -0.74927072      -0.08712920      -0.96570250      -0.36257800      -0.38247688
Cl      -4.79535110      -1.65549065      -1.13049029       0.47828300       0.09931365      -0.56018982       0.66434229      -0.21248969       0.05062324
H       -2.54921292      -0.75341299      -0.57823766      -0.04524429      -0.17730892      -0.01958243      -0.14261965       0.02393896      -0.03287592
H       -2.91644381      -2.19361494       0.31844406       0.29446441       0.01442121      -0.05223774       0.01166893      -0.26242338       0.22573225
H       -1.19490332      -2.51446104      -1.39830393      -0.12660144      -0.25368299       0.02802805      -0.04949759       0.51636992      -0.00199633
H       -2.38546363      -1.97883402      -2.66388447      -0.19212981       0.08018622      -0.10186983       0.14554769      -0.48044902      -0.28430230
9
Properties=species:S:1:pos:R:3:momenta:R:3:forces:R:3 R1=H R2=H R3=CH3 R4=CH3 leaving_group=Cl nucleophile=Cl rxn=sn2 config=rcc label=H_H_CH3_CH3_Cl_Cl_sn2_rcc conformation=0 reactant_id=H_H_CH3_CH3_Cl_none_-_r product_id=H_H_CH3_CH3_none_Cl_sn2_pc mp2_author_energy=-29302.391748605172 mp2_my_energy=0 hash=59123 address=T id=71 energy=-17370.19271528721 pbc="F F F"
C       -4.11143518      -2.31835104      -0.97449454       0.29038533      -0.67755759      -0.65122259       0.87788618      -0.25506696      -0.35572883
C       -3.43782045      -3.05985945      -2.11047712      -0.61286485       0.06932404       0.38605953      -1.25887257       0.09704210       0.07082667
H       -3.97840491      -3.94061411      -2.44036944      -0.09838966      -0.03117754      -0.03781566      -0.13112059      -0.32188473       0.12479202
F       -1.74202114      -2.95710802      -0.07505048      -1.73042332      -1.73842797      -0.39452593       0.00905978       0.13277720       0.33409309
Cl      -5.79038882      -1.61215775      -1.37851482      -2.06624412      -0.07345555      -0.18950294      -0.21816640       0.02726593      -0.71927670
H       -3.46068143      -1.53795047      -0.68876245       0.20925436      -0.08808123      -0.25437430       0.38831793       1.02206242       0.34329539
H       -4.31562491      -2.88155534      -0.10173647      -0.12644983       0.28730035       0.09951748       0.16384893      -0.89556062       0.50137226
H       -2.48933630      -3.26474590      -1.58072129       0.21059080       0.13441490       0.02863629       0.19391888      -0.37194866      -0.03272055
H       -3.26116933      -2.44369355      -2.97749363      -0.07684147       0.03062850      -0.02981317      -0.02487216       0.56531331      -0.26665335
9
Properties=species:S:1:pos:R:3:momenta:R:3:forces:R:3 R1=H R2=H R3=CH3 R4=CH3 leaving_group=Cl nucleophile=Cl rxn=sn2 config=rcc label=H_H_CH3_CH3_Cl_Cl_sn2_rcc conformation=0 reactant_id=H_H_CH3_CH3_Cl_none_-_r product_id=H_H_CH3_CH3_none_Cl_sn2_pc mp2_author_energy=-29302.391748605172 mp2_my_energy=0 hash=59123 address=T id=71 energy=-17370.28190351359 pbc="F F F"
C       -4.83305888      -2.73380676      -1.26077028      -0.56133176      -0.29219891      -0.26265731      -0.59139064       0.04049133       0.68318646
C       -4.62035940      -3.42528744      -2.54477586       0.40661745      -0.56192727      -0.51808653       0.32833435      -0.67198056      -0.82897392
H       -5.51395794      -3.99731151      -2.82042125       0.01749297      -0.11016718      -0.07344316       0.02061146       0.16866708      -0.06271067
F       -3.02278554      -4.27920116      -0.25628418      -0.53529845      -1.41399636       0.04254314       0.36702380      -0.26588674      -0.00356145
Cl      -6.42185163      -1.67420606      -1.52742809      -1.83539944       1.06236924       0.17073034       0.21313001       0.14434484       0.03603649
H       -4.02888361      -2.10496975      -0.91795963      -0.19054297       0.34359433      -0.07537841       0.08540610       0.40667478      -0.22793875
H       -4.99385650      -3.43761523      -0.46800380       0.26831604      -0.17119126       0.05490657      -0.34806332      -0.13536202       0.29637143
H       -3.80334036      -4.15099182      -2.35666512      -0.12446387      -0.14875639       0.09103829      -0.13264392       0.63649774       0.02983875
H       -4.39324956      -2.71103449      -3.34748087      -0.08736908      -0.08586141      -0.11840704       0.05759217      -0.32344644       0.07775167
9
Properties=species:S:1:pos:R:3:momenta:R:3:forces:R:3 R1=H R2=H R3=CH3 R4=CH3 leaving_group=Cl nucleophile=Cl rxn=sn2 config=rcc label=H_H_CH3_CH3_Cl_Cl_sn2_rcc conformation=0 reactant_id=H_H_CH3_CH3_Cl_none_-_r product_id=H_H_CH3_CH3_none_Cl_sn2_pc mp2_author_energy=-29302.391748605172 mp2_my_energy=0 hash=59123 address=T id=71 energy=-17370.087424858895 pbc="F F F"
C       -5.78919535      -3.25614182      -1.36923768      -0.95922804      -0.47713967       0.99219791      -0.47661991      -0.24802486      -1.29948459
C       -5.71640105      -3.96172551      -2.74613543      -0.70212763       0.37629220      -0.44021324      -0.39750923       0.64123592       0.90972027
H       -6.76489397      -4.23085895      -2.93118576      -0.15771909       0.18909902       0.28678092       0.41045707      -0.36823822      -0.21780126
F       -4.59051962      -5.44667623      -0.78981479      -1.36874815      -1.08081115      -0.77524044       0.55783438      -0.65556086       0.42661800
Cl      -6.95952742      -1.77924981      -1.69865208      -0.45060225      -0.58293014      -1.17121331      -0.36984798       0.90720392      -0.04186668
H       -4.88981500      -2.81886274      -0.95833359      -0.07528955       0.05879509       0.20551962       0.06948954      -0.23891407      -0.16953103
H       -6.33121935      -3.86647223      -0.65720757      -0.07662289      -0.17486040       0.22209198       0.41396570      -0.00333041      -0.07208385
H       -5.06243707      -4.80657439      -2.47347961       0.02538584      -0.17662726      -0.11835497      -0.26391007      -0.12190516      -0.24850315
H       -5.37542527      -3.36540141      -3.61200933      -0.14962963      -0.17378026      -0.22208526       0.05614049       0.08753374       0.71293230
9
Properties=species:S:1:pos:R:3:momenta:R:3:forces:R:3 R1=H R2=H R3=CH3 R4=CH3 leaving_group=Cl nucleophile=Cl rxn=sn2 config=rcc label=H_H_CH3_CH3_Cl_Cl_sn2_rcc conformation=0 reactant_id=H_H_CH3_CH3_Cl_none_-_r product_id=H_H_CH3_CH3_none_Cl_sn2_pc mp2_author_energy=-29302.391748605172 mp2_my_energy=0 hash=59123 address=T id=71 energy=-17369.872643094128 pbc="F F F"
C       -6.98833554      -4.08469715      -1.71881205      -0.93434626      -0.12959531      -1.11665047       0.87897445      -2.36835576       0.35563506
C       -7.06471720      -4.52157660      -3.14535808      -0.72312941      -1.01672947      -0.26734740      -0.18875710      -0.14900972       0.41658133
H       -8.07663227      -4.61840704      -3.53697284      -0.05678137      -0.12323427      -0.25510982      -0.08526865       0.46812958      -0.09251830
F       -6.52367863      -6.61353642      -1.27668092      -1.65043329      -0.58580106      -0.14847741      -0.45862515       1.92703907      -0.39163752
Cl      -7.49527318      -1.93790439      -1.80516089      -0.63886010      -0.18883909       0.67720118       0.18163275      -0.68067437      -0.09750514
H       -5.92003927      -4.13325082      -1.47487027       0.04815693       0.12634089       0.16656862      -0.56419324       0.54927833       0.40465068
H       -7.53516877      -4.74857320      -1.04813005      -0.03571372      -0.22985854      -0.19979387       0.11312838       0.19246033      -0.04658858
H       -6.71048389      -5.57289133      -2.96661395      -0.28999526      -0.14980419      -0.04150658       0.34071131       0.68318785      -0.23238627
H       -6.43057558      -3.82674549      -3.71411713      -0.03972789       0.04364688       0.05869138      -0.21760276      -0.62205529      -0.31623125
9
Properties=species:S:1:pos:R:3:momenta:R:3:forces:R:3 R1=H R2=H R3=CH3 R4=CH3 leaving_group=Cl nucleophile=Cl rxn=sn2 config=rcc label=H_H_CH3_CH3_Cl_Cl_sn2_rcc conformation=0 reactant_id=H_H_CH3_CH3_Cl_none_-_r product_id=H_H_CH3_CH3_none_Cl_sn2_pc mp2_author_energy=-29302.391748605172 mp2_my_energy=0 hash=59123 address=T id=71 energy=-17369.967242533832 pbc="F F F"
C       -8.42062335      -4.77508934      -1.89425642      -0.55133622      -0.90378798      -1.28020456      -0.25705362      -0.41114296      -0.31733595
C       -8.37247761      -4.91804231      -3.38843111      -0.96682447       0.57916428       0.54563045       0.75213279      -0.34104523       0.76150858
H       -9.04230034      -4.24300289      -3.89185782      -0.06314954       0.10601150      -0.01119977      -0.59537113      -0.10744664      -0.17923948
F       -8.25689058      -7.34882048      -1.87519243      -1.48153152      -1.63130911       0.03608315      -0.17205466       1.01173045      -0.10124763
Cl      -7.82641796      -2.36999091      -1.93481882      -0.36746334       0.33281670      -0.01779746      -0.12924233       0.00378297      -0.03853467
H       -8.08786012      -5.63699805      -1.37556461       0.02604910      -0.04642100      -0.00193270       0.76308518      -0.88410000       0.15134355
H       -9.38170084      -4.54349835      -1.49167889      -0.18613153      -0.07660319      -0.24102688      -0.47240195       0.43800952       0.01755603
H       -8.50426983      -6.00781935      -3.51652228       0.07733181      -0.18399890       0.09852928      -0.36520211       0.31116500      -0.14401816
H       -7.38240775      -4.63943820      -3.71559653      -0.05520314      -0.03718267      -0.05831329       0.47610783      -0.02095311      -0.15003228
9
Properties=species:S:1:pos:R:3:momenta:R:3:forces:R:3 R1=H R2=H R3=CH3 R4=CH3 leaving_group=Cl nucleophile=Cl rxn=sn2 config=rcc label=H_H_CH3_CH3_Cl_Cl_sn2_rcc conformation=0 reactant_id=H_H_CH3_CH3_Cl_none_-_r product_id=H_H_CH3_CH3_none_Cl_sn2_pc mp2_author_energy=-29302.391748605172 mp2_my_energy=0 hash=59123 address=T id=71 energy=-17370.074981255457 pbc="F F F"
C       -9.53173452      -5.34764338      -2.31394665      -0.74950755       0.69457725      -1.25182907      -0.68609937      -0.75661128       0.86783154
C       -9.47323342      -5.23015715      -3.78268198      -0.41365790      -0.03527688      -0.20144544       0.27242536      -0.72542005       0.26781635
H       -9.30010786      -4.21513015      -4.11962576      -0.05557560       0.05723144      -0.02958150       0.12475448      -0.16368893      -0.20117871
F       -9.99057387      -7.83773268      -2.26306513      -1.29068031      -1.25991213      -0.14807843      -0.07614538       0.55654662       0.09883665
Cl      -8.31842227      -2.97594425      -1.99669600      -0.45580707      -1.01724178       0.12317581      -0.11687833      -0.01650228       0.00903910
H       -9.75801154      -6.46594387      -2.06104998       0.21077428      -0.04005429       0.19381114       0.39993620       0.35139236      -0.36242772
H      -10.27682101      -4.72009762      -1.84227938      -0.18729669      -0.03865236       0.06245136       0.20929997       0.08287122      -0.05676129
H      -10.40361061      -5.63583908      -4.14525766      -0.08338469       0.13359965       0.10663949      -0.74362965       0.25552368      -0.12519355
H       -8.74983933      -5.96209746      -4.12554067      -0.20748127      -0.18050035       0.30212547       0.61633671       0.41588866      -0.49796238
9
Properties=species:S:1:pos:R:3:momenta:R:3:forces:R:3 R1=H R2=H R3=CH3 R4=CH3 leaving_group=Cl nucleophile=Cl rxn=sn2 config=rcc label=H_H_CH3_CH3_Cl_Cl_sn2_rcc conformation=0 reactant_id=H_H_CH3_CH3_Cl_none_-_r product_id=H_H_CH3_CH3_none_Cl_sn2_pc mp2_author_energy=-29302.391748605172 mp2_my_energy=0 hash=59123 address=T id=71 energy=-17370.137097812167 pbc="F F F"
C      -10.27042670      -5.79270424      -2.23949272      -0.61735278      -0.31078914       0.00599274       0.27866126       0.65933120       0.09958385
C      -10.28208623      -5.48600430      -3.69154511      -0.65748022      -0.35420985       0.09829852      -0.38713880       0.25478927      -0.56221652
H      -10.86727327      -4.55312174      -3.85733745       0.03996332       0.04996490      -0.27171912       0.36139026      -0.82562293      -0.10189800
F      -11.34229583      -7.99669337      -2.84882826      -0.29694189       0.53089221      -0.20006939      -0.10146540      -0.19986449      -0.12795484
Cl      -8.70761308      -3.52734686      -2.20625832      -0.32378543      -0.92955332      -0.09598453      -0.09028015      -0.02042862       0.25429646
H      -10.45832518      -6.85467187      -2.09667810       0.01384046      -0.15620827      -0.02745923       0.04356919      -0.19971800       0.13809056
H      -10.94921911      -5.18021301      -1.66387608      -0.07721154       0.00847470      -0.01755574       0.14275148       0.04255601       0.12903640
H      -10.73741082      -6.37809922      -4.15480824      -0.02042019       0.03297152      -0.12344836      -0.12473873       0.38540082       0.04606819
H       -9.27745732      -5.32398279      -4.09207206      -0.20447253       0.01015545       0.07304859      -0.12274911      -0.09644326       0.12499389
9
Properties=species:S:1:pos:R:3:momenta:R:3:forces:R:3 R1=H R2=H R3=CH3 R4=CH3 leaving_group=Cl nucleophile=Cl rxn=sn2 config=rcc label=H_H_CH3_CH3_Cl_Cl_sn2_rcc conformation=0 reactant_id=H_H_CH3_CH3_Cl_none_-_r product_id=H_H_CH3_CH3_none_Cl_sn2_pc mp2_author_energy=-29302.391748605172 mp2_my_energy=0 hash=59123 address=T id=71 energy=-17370.041895673006 pbc="F F F"
C      -11.34782040      -6.08638752      -2.58358180      -0.35194320       0.08795633      -0.16743072       1.54616453       0.82705792      -1.63868724
C      -11.33108766      -5.71650590      -4.05355479       0.11661991      -0.12918612       0.26565228      -1.03728936       1.54562180      -0.39533983
H      -10.83560089      -4.75146802      -4.26943060       0.02935384       0.14547908       0.21104020      -0.21718776      -0.63101694       0.39437363
F      -12.67490411      -8.12485888      -3.17029738      -0.95732523       0.01910138      -0.31602056      -0.58487740      -0.77695820      -0.06996405
Cl      -9.25438446      -4.37065378      -2.29380863      -1.73341940      -1.61380932      -0.80556179       0.22973035       0.18884394       0.23451199
H      -11.82327488      -7.07287552      -2.48138703      -0.04318079      -0.05416218      -0.01107078      -0.47352845      -0.48817336       0.28188203
H      -11.59919917      -5.26907307      -1.95082142       0.19911626       0.08496403       0.03898128      -0.38439219       0.14008208       0.35733941
H      -12.38716041      -5.58293022      -4.37973392       0.02194812       0.15003473       0.15053964       0.39464433      -0.05103456       0.51666364
H      -10.96444888      -6.41802184      -4.78484023       0.04745500      -0.08384716      -0.06254718       0.52673595      -0.75442269       0.31922043
9
Properties=species:S:1:pos:R:3:momenta:R:3:forces:R:3 R1=H R2=H R3=CH3 R4=CH3 leaving_group=Cl nucleophile=Cl rxn=sn2 config=rcc label=H_H_CH3_CH3_Cl_Cl_sn2_rcc conformation=0 reactant_id=H_H_CH3_CH3_Cl_none_-_r product_id=H_H_CH3_CH3_none_Cl_sn2_pc mp2_author_energy=-29302.391748605172 mp2_my_energy=0 hash=59123 address=T id=71 energy=-17370.076106260367 pbc="F F F"
C      -12.16313454      -6.46924554      -2.76009799      -0.31578412      -0.19512689       0.12663281       1.00746701       0.23099043      -0.87953339
C      -12.16891426      -5.99735271      -4.21752804       0.23224317      -0.38947315      -0.04154938       0.75045743       0.09947568       1.82555480
H      -12.13345261      -4.88994111      -4.14301694      -0.05874701      -0.07981534       0.11874552       0.03849725      -0.73463979      -0.79511576
F      -13.96742721      -8.04110815      -3.55752013      -1.03887183       0.36453839      -0.41870818      -0.36204584      -0.28835559      -0.15244615
Cl      -9.79151583      -5.12636658      -2.45844947      -0.77017969      -0.46895052      -0.43380294      -0.15219064       0.01985986       0.02717659
H      -12.45085109      -7.50901131      -2.69364987       0.02813227      -0.14730403       0.03214208      -0.23022139       0.06551664       0.20108752
H      -12.64060684      -5.79362984      -2.07910505      -0.04321824      -0.14461051       0.22817201      -0.19453140      -0.04415549       0.23571959
H      -13.09059055      -6.45606518      -4.54176173       0.01309192      -0.01647325       0.01838636      -0.68043097       0.12526903      -0.43074117
H      -11.31189741      -6.47041060      -4.72118683      -0.06068794       0.02664157      -0.15506617      -0.17700146       0.52603923      -0.03170203
9
Properties=species:S:1:pos:R:3:momenta:R:3:forces:R:3 R1=H R2=H R3=CH3 R4=CH3 leaving_group=Cl nucleophile=Cl rxn=sn2 config=rcc label=H_H_CH3_CH3_Cl_Cl_sn2_rcc conformation=0 reactant_id=H_H_CH3_CH3_Cl_none_-_r product_id=H_H_CH3_CH3_none_Cl_sn2_pc mp2_author_energy=-29302.391748605172 mp2_my_energy=0 hash=59123 address=T id=71 energy=-17370.102937338143 pbc="F F F"
C      -13.04393663      -6.68806870      -3.17435039      -0.68013105      -0.67724536      -0.18485914      -0.69442310      -1.09830778      -1.86369748
C      -12.88107804      -6.20098605      -4.59560795      -0.21258587      -0.49474128      -0.16113447       0.14386499      -0.00696498      -0.05057139
H      -11.92132339      -5.73537691      -4.71186673      -0.28881028       0.10574051      -0.27610146       0.35538964       0.45443829      -0.12201665
F      -15.13254541      -8.02286416      -3.69372935      -0.20832942       0.80143289       0.06338162       0.71621403       0.63115494       0.22526398
Cl     -10.51549780      -6.02298556      -2.57123780      -1.39078335      -1.52361818       0.00450119       0.47665964       0.14251815       0.12906079
H      -13.95856439      -7.31215192      -3.21010421      -0.03929252      -0.04045164      -0.03325886      -0.88266775      -0.76451755       0.21059804
H      -13.00409025      -6.00743825      -2.37329457      -0.07813419       0.01306511       0.01154245      -0.03995920       0.81392347       0.34979780
H      -13.67612816      -5.49099944      -4.86093534      -0.20528768       0.02882619       0.04376873       0.02440186      -0.12146266       0.43819274
H      -12.91846222      -6.99659400      -5.36236657      -0.04747584       0.14342464      -0.28924975      -0.09948011      -0.05078190       0.68337218
9
Properties=species:S:1:pos:R:3:momenta:R:3:forces:R:3 R1=H R2=H R3=CH3 R4=CH3 leaving_group=Cl nucleophile=Cl rxn=sn2 config=rcc label=H_H_CH3_CH3_Cl_Cl_sn2_rcc conformation=0 reactant_id=H_H_CH3_CH3_Cl_none_-_r product_id=H_H_CH3_CH3_none_Cl_sn2_pc mp2_author_energy=-29302.391748605172 mp2_my_energy=0 hash=59123 address=T id=71 energy=-17370.030714568606 pbc="F F F"
C      -13.96263628      -7.24853500      -3.37780582      -1.70540685      -1.20976412       0.33073762      -0.66859170      -0.67638256       2.11941836
C      -13.78823809      -6.48046855      -4.63086782      -0.73902806       0.07125969      -0.14658330      -1.03319684      -0.47664961       0.70142177
H      -13.25584847      -5.59896456      -4.41042560      -0.02365660      -0.23050287      -0.00617637       0.94596983       1.08088512      -0.13808289
F      -16.30571556      -7.72603161      -4.09474572      -0.65876945       0.67875565      -0.52232470      -0.80832878      -0.27803814      -0.18354366
Cl     -11.25199009      -6.94724951      -2.82804521      -0.46272383      -1.27169915      -0.38614810      -0.39367323       0.01487725      -0.08553579
H      -14.98868522      -7.86186301      -3.43771702      -0.00917303       0.31455295      -0.19786141       1.48576504       1.08548832      -0.23681971
H      -13.91936383      -6.69950484      -2.39634090      -0.07371483      -0.19289975       0.03488989       0.11479982      -0.50518435      -1.41595739
H      -14.81753916      -6.23258393      -4.94298568      -0.16538160      -0.08138996      -0.02850316       0.23338456      -0.24070455      -0.14216955
H      -13.26981349      -7.11386099      -5.32967515      -0.10730829      -0.13622702      -0.10651964       0.12387130      -0.00429147      -0.61873114
9
Properties=species:S:1:pos:R:3:momenta:R:3:forces:R:3 R1=H R2=H R3=CH3 R4=CH3 leaving_group=Cl nucleophile=Cl rxn=sn2 config=rcc label=H_H_CH3_CH3_Cl_Cl_sn2_rcc conformation=0 reactant_id=H_H_CH3_CH3_Cl_none_-_r product_id=H_H_CH3_CH3_none_Cl_sn2_pc mp2_author_energy=-29302.391748605172 mp2_my_energy=0 hash=59123 address=T id=71 energy=-17370.11484046252 pbc="F F F"
C      -14.93850235      -7.64728035      -3.67566186      -1.45465196      -0.54122691      -0.01339332       0.56312452       0.69332954       1.21898048
C      -14.48205362      -6.70311440      -4.73796021      -0.74524944      -0.03308058      -0.33767221       0.77717269       0.45144747       0.47961943
H      -13.52090190      -6.27524792      -4.41461084       0.11606133       0.06680077       0.11506182      -0.66899850       0.07583082      -0.48625520
F      -17.33306375      -7.57479975      -4.32866434       0.75107401      -0.03664510       0.17172711      -0.79233547       0.01704332      -0.12014225
Cl     -12.29402171      -7.97179176      -3.12705093      -2.41034032      -1.57037329      -0.54533450       0.46885858      -0.36153055       0.27256050
H      -16.09416753      -7.80607281      -3.85859836       0.15878655       0.12019994       0.10500733       0.75142272       0.00479440       0.07886457
H      -14.66316011      -7.25628608      -2.65742521       0.10460670      -0.02898989      -0.22852687      -0.81524043      -0.64689388      -1.34603253
H      -15.22466450      -5.92448697      -4.84107435       0.18556492       0.04715639      -0.17497049      -0.20935305       0.25319546       0.16428261
H      -14.33943976      -7.12666781      -5.72017526      -0.10798160       0.20150616       0.02117856      -0.07465105      -0.48721657      -0.26187760
9
Properties=species:S:1:pos:R:3:momenta:R:3:forces:R:3 R1=H R2=H R3=CH3 R4=CH3 leaving_group=Cl nucleophile=Cl rxn=sn2 config=rcc label=H_H_CH3_CH3_Cl_Cl_sn2_rcc conformation=0 reactant_id=H_H_CH3_CH3_Cl_none_-_r product_id=H_H_CH3_CH3_none_Cl_sn2_pc mp2_author_energy=-29302.391748605172 mp2_my_energy=0 hash=59123 address=T id=71 energy=-17370.092303326168 pbc="F F F"
C      -16.09484379      -8.00147000      -4.05268915      -0.43797275      -0.09724860       0.12327321       1.50189760       0.43458637      -1.18443072
C      -15.29651725      -6.96343566      -4.81410622      -0.25654807       0.26642520       0.02167094       0.73346486      -0.20616804      -0.55656920
H      -14.22069794      -7.00180041      -4.51228063       0.04013373      -0.20254098      -0.02271354      -1.08942618       0.17160228      -0.08364942
F      -18.45451903      -7.48226914      -4.56923080      -1.42597475       0.01963134      -0.07792719      -0.97482948       0.41843482      -0.39148209
Cl     -13.73604294      -9.25055885      -3.55713613      -2.01852057      -1.42582661      -0.67757244       0.13471174      -0.31088508       0.22682202
H      -17.21528765      -7.91694453      -4.36377003       0.14348758       0.09915569      -0.38421630       0.33012840       0.04917254       0.26114740
H      -15.94393536      -7.86806469      -3.02529996       0.21155383      -0.11235489      -0.17859571      -0.08591059      -0.19942586       1.33820783