9
Properties=species:S:1:pos:R:3:momenta:R:3:forces:R:3 R1=H R2=H R3=CH3 R4=CH3 leaving_group=Cl nucleophile=Cl rxn=sn2 config=rcc label=H_H_CH3_CH3_Cl_Cl_sn2_rcc conformation=0 reactant_id=H_H_CH3_CH3_Cl_none_-_r product_id=H_H_CH3_CH3_none_Cl_sn2_pc mp2_author_energy=-29302.391748605172 mp2_my_energy=0 hash=59123 address=T id=71 energy=-17370.412368016237 pbc="F F F"
C        0.12542541       0.11270554      -0.00029240      -0.03169132      -0.48046306      -0.48568647      -0.09214561       1.11788396      -0.00082481
C        1.62503867       0.00847468       0.00156754      -0.94581327       0.63890178       0.07372967      -0.06338950      -0.85342640       0.00215309
H        1.99473018      -0.50605055       0.89354482       0.05482790       0.13606052      -0.16785672       0.00320508       0.00300841       0.00517082
F        0.89788639       2.64149152      -0.00442372       0.70852424       0.26450535       1.08358873      -0.23271315      -0.10403772      -0.00076135
Cl      -0.69504884      -1.53494042       0.00509220      -0.11391038      -0.16626810      -1.21905999       0.38207948      -0.16174994      -0.00050876
H       -0.22306082       0.64592326      -0.87549887      -0.16345826       0.16789434       0.17145781      -0.00302890      -0.00293595      -0.00472561
H       -0.22431889       0.65275656       0.87018381      -0.01876688      -0.08497159      -0.06634332      -0.00396382      -0.00350204       0.00469305
H        1.88822962       1.08069343      -0.00059746      -0.34063534       0.17711549      -0.02487061       0.00778691       0.00253743      -0.00033365
H        1.99700981      -0.51031959      -0.88698835       0.16572030       0.08771151       0.01498812       0.00216950       0.00222225      -0.00486279
9
Properties=species:S:1:pos:R:3:momenta:R:3:forces:R:3 R1=H R2=H R3=CH3 R4=CH3 leaving_group=Cl nucleophile=Cl rxn=sn2 config=rcc label=H_H_CH3_CH3_Cl_Cl_sn2_rcc conformation=0 reactant_id=H_H_CH3_CH3_Cl_none_-_r product_id=H_H_CH3_CH3_none_Cl_sn2_pc mp2_author_energy=-29302.391748605172 mp2_my_energy=0 hash=59123 address=T id=71 energy=-17370.313428074962 pbc="F F F"
C       -0.09913616       0.40506610      -0.17210412       0.42900646      -0.10119276      -0.55939663      -1.51036828       0.14467854       0.14767544
C        1.33172561       0.49491621      -0.48962081       0.52307272       0.81052860       0.13292992       0.75778734      -0.95859908       1.19636669
H        1.80549761      -0.49807581      -0.28857241       0.13465729       0.05410629       0.16157250      -0.09320652       0.84853816      -0.02431654
F        0.22349416       2.27162199       1.66587897      -0.74769602      -0.91294268       0.49774541       0.18832213      -0.21380290      -0.28685364
Cl      -0.77775607      -0.93416071      -1.23349464      -1.20127208       0.90125981      -1.07314520      -0.12768108      -0.10202166      -0.03174742
H       -0.65798425       1.30401503      -0.34872339       0.06570053       0.03977110       0.09460657      -0.01128077       0.39734378      -0.57589862
H       -0.33514600       0.24716862       0.86387703       0.03729272      -0.16085247      -0.03535375       0.33578760      -0.59747120       0.32786889
H        1.63806876       1.26214360       0.22184474      -0.00097045      -0.00749438       0.04073368       0.36173376       0.10709851      -0.08034597
H        1.51775340       0.74118340      -1.51302519      -0.00936914       0.20848515       0.04390227       0.09890582       0.37423586      -0.67274885
9
Properties=species:S:1:pos:R:3:momenta:R:3:forces:R:3 R1=H R2=H R3=CH3 R4=CH3 leaving_group=Cl nucleophile=Cl rxn=sn2 config=rcc label=H_H_CH3_CH3_Cl_Cl_sn2_rcc conformation=0 reactant_id=H_H_CH3_CH3_Cl_none_-_r product_id=H_H_CH3_CH3_none_Cl_sn2_pc mp2_author_energy=-29302.391748605172 mp2_my_energy=0 hash=59123 address=T id=71 energy=-17370.41728922471 pbc="F F F"
C       -0.43850710       0.46672462      -0.33734509      -0.63913146      -0.06972483       0.98527044       0.10996975      -0.04686639      -0.94513175
C        0.72636363       1.40830149      -0.31819188      -1.16328783      -0.07507976       0.46488029       0.27905414       0.96735123      -0.16265609
H        1.64605107       0.97848971      -0.73717185      -0.01635988       0.03144913      -0.09140634      -0.25279344      -0.20668431       0.19083231
F       -0.35507627       0.90222369       2.26280195       0.39056073      -0.46024249      -0.05731238      -0.00464104      -0.06316415      -0.12509068
Cl      -0.73421137       0.11520615      -2.16182231       0.67903479       1.35267777      -1.91982396       0.02261306      -0.13470249       0.37028528
H       -1.36305384       0.88025154       0.03439487      -0.06722042       0.04183138      -0.01054087       0.12389255       0.05220280       0.24002194
H       -0.20129699      -0.47601778       0.14295464       0.06265205      -0.13869045      -0.21337288      -0.17356767       0.09179677       0.02205982
H        0.81295027       1.61664360       0.75578133      -0.08815311       0.07805769       0.07994624       0.13644206      -0.02324713       0.06139231
H        0.55900005       2.35615394      -0.88111742       0.13098194       0.00800309       0.11903201      -0.24096940      -0.63668632       0.34828688
9
Properties=species:S:1:pos:R:3:momenta:R:3:forces:R:3 R1=H R2=H R3=CH3 R4=CH3 leaving_group=Cl nucleophile=Cl rxn=sn2 config=rcc label=H_H_CH3_CH3_Cl_Cl_sn2_rcc conformation=0 reactant_id=H_H_CH3_CH3_Cl_none_-_r product_id=H_H_CH3_CH3_none_Cl_sn2_pc mp2_author_energy=-29302.391748605172 mp2_my_energy=0 hash=59123 address=T id=71 energy=-17370.31792322576 pbc="F F F"
C       -0.73910584       0.66038419      -0.74709147      -0.24214072       0.51628521      -0.39152323      -0.24157080       1.12102369       0.62934881
C       -0.49216595       1.84032974       0.15806530      -0.64679114       0.91596629       0.15160438       0.15257662      -0.25227456       0.29593692
H        0.50575512       2.22419397      -0.04931629      -0.14198016      -0.25687737      -0.05247531       0.08983341       0.28535710       0.03363996
F       -0.78894463      -0.56662100       1.54911375      -0.43328770      -1.27812547      -2.48091861      -0.03716482      -0.06139698      -0.08528520
Cl      -0.55175162       1.40490712      -2.44237046       0.33634575       1.71665746       1.49211110       0.08480021      -0.07638452      -0.79449849
H       -1.77517982       0.34568016      -0.69605317       0.02585584      -0.15293617      -0.13795914       0.37263204      -0.61163297       0.16272444
H        0.02682969      -0.06764562      -0.56298489       0.01850023       0.10762523       0.19789793      -0.24544317      -0.62291037      -0.21299141
H       -0.51024776       1.36534348       1.15795980       0.11958082       0.00010687       0.04231840      -0.29384961       0.25626654      -0.24687138
H       -1.23724114       2.62635977      -0.00413026      -0.36971020      -0.12747571      -0.02787933       0.11818612      -0.03804793       0.21799634
9
Properties=species:S:1:pos:R:3:momenta:R:3:forces:R:3 R1=H R2=H R3=CH3 R4=CH3 leaving_group=Cl nucleophile=Cl rxn=sn2 config=rcc label=H_H_CH3_CH3_Cl_Cl_sn2_rcc conformation=0 reactant_id=H_H_CH3_CH3_Cl_none_-_r product_id=H_H_CH3_CH3_none_Cl_sn2_pc mp2_author_energy=-29302.391748605172 mp2_my_energy=0 hash=59123 address=T id=71 energy=-17370.236522055104 pbc="F F F"
C       -0.88522919       1.04926285      -1.06359827       0.50020547      -0.19211098      -0.41865091      -0.77113432       0.32531547       0.00489969
C       -1.88295719       1.42117708       0.01787846      -0.35837768      -0.73514326      -0.35803455       0.65947441       0.97670146      -0.49713705
H       -1.52777488       2.24750672       0.67123863      -0.14791846       0.06210238      -0.10566480      -0.28510464      -0.47119263      -0.39714100
F       -1.13711013      -1.28828012      -0.10275405      -0.80647027      -0.09434824      -1.02294410      -0.15824449      -1.22409679       0.52318487
Cl      -0.42911077       2.61111421      -2.01013642      -0.46897682       2.22823933       1.32105690       0.04703873       0.52264359      -0.24826631
H       -1.38372948       0.35117167      -1.74234745       0.14692573      -0.20552302       0.01885423       0.55577242       0.25052254       0.07813419
H        0.00193059       0.60815248      -0.64234214       0.12444079       0.00801962      -0.19527070       0.20956373      -0.00824357      -0.16689074
H       -1.94292544       0.47557803       0.52135145      -0.05498633      -0.19756035      -0.03458260      -0.13856779      -0.66389240       0.55256288
H       -2.83849547       1.65468183      -0.44911084       0.05427945       0.21876178      -0.11952562      -0.11879804       0.29224233       0.15065347
9
Properties=species:S:1:pos:R:3:momenta:R:3:forces:R:3 R1=H R2=H R3=CH3 R4=CH3 leaving_group=Cl nucleophile=Cl rxn=sn2 config=rcc label=H_H_CH3_CH3_Cl_Cl_sn2_rcc conformation=0 reactant_id=H_H_CH3_CH3_Cl_none_-_r product_id=H_H_CH3_CH3_none_Cl_sn2_pc mp2_author_energy=-29302.391748605172 mp2_my_energy=0 hash=59123 address=T id=71 energy=-17369.98303106184 pbc="F F F"
C       -1.05598342       1.40117798      -1.60457406      -0.08568078      -0.15273931      -0.30100464      -0.45046181      -0.44694361       0.23933789
C       -2.54308160       1.24449896      -1.54493330       0.02263444       0.30111367      -0.65323664       0.70004360       0.32279277       0.03444548
H       -2.86932874       1.53740724      -0.54540832      -0.08054288      -0.13425354      -0.01036938      -0.14432523      -0.28362990      -0.04210871
F       -1.44712621      -0.99024271      -2.40903442      -0.38530263       0.07372030      -1.90024117       0.36449208       0.62347510       0.24000258
Cl      -0.81116032       3.32847167      -0.67682576      -1.04430239       0.91017481       2.04428525       0.10761143      -0.06826389      -0.16817154
H       -0.52008779       1.58477078      -2.52327616       0.06119025       0.09797538      -0.03540679      -0.29798814      -0.12853519      -0.04035880
H       -0.55054562       0.76268419      -0.89811512       0.03417024       0.04238211      -0.05812053       0.21232791       0.05401403      -0.06487601
H       -2.46326856       0.13861035      -1.75988342       0.01194149       0.18218480      -0.16509130      -0.70603097       0.20160959      -0.25248960
H       -3.07561819       1.84583706      -2.29243476       0.25375985      -0.01062915      -0.01769565       0.21433112      -0.27451889       0.05421871
9
Properties=species:S:1:pos:R:3:momenta:R:3:forces:R:3 R1=H R2=H R3=CH3 R4=CH3 leaving_group=Cl nucleophile=Cl rxn=sn2 config=rcc label=H_H_CH3_CH3_Cl_Cl_sn2_rcc conformation=0 reactant_id=H_H_CH3_CH3_Cl_none_-_r product_id=H_H_CH3_CH3_none_Cl_sn2_pc mp2_author_energy=-29302.391748605172 mp2_my_energy=0 hash=59123 address=T id=71 energy=-17369.89626321708 pbc="F F F"
C       -1.14565688       1.59242910      -2.12247031      -0.42091311       0.37470589      -0.31582284      -0.40128586       0.21361762       0.04892093
C       -2.49147108       2.12005732      -2.52103359       0.59474445       0.72418350      -0.11336298       0.57604003      -0.46085841      -0.72833721
H       -3.25253736       1.52758623      -2.01441976      -0.01190625       0.01381148      -0.03364446      -0.13016815       0.31912183       0.10372119
F       -1.41451419       0.22144826      -4.22669077       0.10030846       1.00991155      -0.77028558       0.10854359       0.58777336       0.75783793
Cl      -1.55155017       3.01622342       0.23871757      -1.20690920      -0.85224983       0.73419788       0.23513067      -0.40974669      -0.62886538
H       -0.31826314       2.27814136      -2.15526325       0.00009277      -0.02179112      -0.12878264       0.14972755      -0.04126473       0.09634687
H       -1.02307164       0.63005759      -1.63892528      -0.02097569      -0.11259858      -0.22465221      -0.19066615       0.21972453      -0.01861608
H       -2.52232703       1.84280841      -3.59410547      -0.05698520       0.04851139       0.00148409      -0.25330633       0.25339109       0.32733592
H       -2.56696873       3.20884667      -2.35617554      -0.00391972      -0.07520420      -0.07799689      -0.09401535      -0.68175861       0.04165584
9
Properties=species:S:1:pos:R:3:momenta:R:3:forces:R:3 R1=H R2=H R3=CH3 R4=CH3 leaving_group=Cl nucleophile=Cl rxn=sn2 config=rcc label=H_H_CH3_CH3_Cl_Cl_sn2_rcc conformation=0 reactant_id=H_H_CH3_CH3_Cl_none_-_r product_id=H_H_CH3_CH3_none_Cl_sn2_pc mp2_author_energy=-29302.391748605172 mp2_my_energy=0 hash=59123 address=T id=71 energy=-17370.23446607975 pbc="F F F"
C       -1.50032016       2.10465711      -2.41816950       0.33676770      -0.49854190      -0.04684371      -0.30691608       1.00140214      -1.39552002
C       -2.44974534       3.24057755      -2.75153785       0.10675954       0.16908766      -0.27534735      -0.03391533      -0.31268579      -0.02370216
H       -3.43520742       2.91492121      -3.08584710       0.04265238       0.05039754      -0.00391741      -0.04878627      -0.27935922      -0.18837163
F       -1.19871246       1.61874998      -4.81295608      -0.27334460       1.44059636      -0.54762055       0.04888932       0.03508742       0.75385108
Cl      -2.20809291       2.27183888       0.20380295      -1.25763910      -0.59617882      -0.25596580       0.02276621       0.05322687       0.32630752
H       -0.61719079       2.62118991      -2.06553794       0.01416985      -0.01784320       0.05128495       0.22021982      -0.58046262       0.31640156
H       -1.29534564       1.58446537      -3.40528309       0.15401198      -0.02058927       0.16139435       0.02883387      -0.01281516      -0.12493955
H       -1.94166586       3.75262675      -3.59506153      -0.18392734       0.49181244       0.09497590      -0.37183936      -0.02883101       0.64833110
H       -2.65083128       3.86677769      -1.88012355       0.18170479      -0.06898949       0.02675683       0.44074781       0.12443734      -0.31235790
9
Properties=species:S:1:pos:R:3:momenta:R:3:forces:R:3 R1=H R2=H R3=CH3 R4=CH3 leaving_group=Cl nucleophile=Cl rxn=sn2 config=rcc label=H_H_CH3_CH3_Cl_Cl_sn2_rcc conformation=0 reactant_id=H_H_CH3_CH3_Cl_none_-_r product_id=H_H_CH3_CH3_none_Cl_sn2_pc mp2_author_energy=-29302.391748605172 mp2_my_energy=0 hash=59123 address=T id=71 energy=-17370.454602292568 pbc="F F F"
C       -1.71730252       2.54411381      -2.74720478      -0.50596253      -0.74675483       0.37654830       0.53856379       0.48519450      -0.32356252
C       -2.29762265       3.89556655      -2.41147614       0.41838373       0.52889169      -0.09365833      -0.32232491      -0.67015685       0.13952116
H       -3.31712554       3.97620309      -2.80861964      -0.10226952       0.19022123       0.22667264       0.14438444       0.18896018       0.02198095
F       -1.14432136       3.14756924      -4.99291846       0.29232606       1.50436928      -0.64208147       0.19389723      -0.05816616      -0.48284831
Cl      -2.86135635       1.68558306      -0.30303301      -0.48710721      -0.46216366      -0.91864031      -0.00875598      -0.17921713       0.25232632
H       -0.77502142       2.38935260      -2.24563759      -0.26607200       0.11706390       0.10341744      -0.11361188      -0.23154088       0.37916522
H       -1.44551268       2.53894464      -3.88411130       0.04325518      -0.11512701       0.22824761      -0.54164218       0.33528492       0.44025576
H       -1.65242114       4.63820147      -2.85405484      -0.06905527       0.00661271       0.08181221       0.22920720       0.23993018      -0.39190915
H       -2.33036364       4.06112294      -1.33597848      -0.09441489      -0.18999816      -0.05993454      -0.11971772      -0.11028877      -0.03492942
9
Properties=species:S:1:pos:R:3:momenta:R:3:forces:R:3 R1=H R2=H R3=CH3 R4=CH3 leaving_group=Cl nucleophile=Cl rxn=sn2 config=rcc label=H_H_CH3_CH3_Cl_Cl_sn2_rcc conformation=0 reactant_id=H_H_CH3_CH3_Cl_none_-_r product_id=H_H_CH3_CH3_none_Cl_sn2_pc mp2_author_energy=-29302.391748605172 mp2_my_energy=0 hash=59123 address=T id=71 energy=-17370.471971557377 pbc="F F F"
C       -1.92593118       3.11169967      -2.92739318      -0.79030817      -0.02468226      -0.56725736       0.58732222       0.89316553      -0.63243906
C       -2.14953854       4.20593308      -1.89034184       0.17576659       0.33817369      -0.02995012       0.62479114      -0.91829930      -0.04068847
H       -2.81277008       4.99796353      -2.19537402       0.11665423      -0.04532929      -0.05900402      -0.45659217       0.08884890      -0.50700955
F       -1.27683977       4.43447648      -4.78104241       0.05847853       0.99153937       0.88556316       0.20755405       0.27000600      -0.24808149
Cl      -3.36837836       1.29849667      -1.12258652      -0.40613327      -0.26598650      -1.08902438      -0.06644291      -0.29031717       0.09904355
H       -1.29261200       2.27974854      -2.59951419       0.13285433      -0.13974343      -0.10121166      -0.43515506       0.60909057      -0.20575937
H       -1.62921997       3.60776142      -3.98359294      -0.13730834       0.12549866       0.07292035      -0.35430665      -0.57636484       1.45685184
H       -1.21165055       4.69970767      -1.58508931      -0.06531464      -0.04516508       0.29002348      -0.06252864      -0.51556586      -0.38919949
H       -2.58040156       3.67086476      -1.05268182       0.07804408      -0.02948659      -0.15971740      -0.04464199       0.43943617       0.46728203
9
Properties=species:S:1:pos:R:3:momenta:R:3:forces:R:3 R1=H R2=H R3=CH3 R4=CH3 leaving_group=Cl nucleophile=Cl rxn=sn2 config=rcc label=H_H_CH3_CH3_Cl_Cl_sn2_rcc conformation=0 reactant_id=H_H_CH3_CH3_Cl_none_-_r product_id=H_H_CH3_CH3_none_Cl_sn2_pc mp2_author_energy=-29302.391748605172 mp2_my_energy=0 hash=59123 address=T id=71 energy=-17370.558023212503 pbc="F F F"
C       -2.29252772       3.72631402      -2.95787407       0.18483027       0.47650399      -0.27375276       0.22789298       0.15616194       0.80933670
C       -1.98930598       3.99766555      -1.49590206      -0.41543906      -0.93542751       0.38351186      -0.64188875       0.43647800      -0.92977026
H       -2.76441172       4.64388946      -1.05312130       0.00479299      -0.01697062       0.07885142       0.64541274       0.27618534      -0.13529013
F       -1.59731821       5.62446583      -4.13241645      -0.35238841       1.10937913       0.54627796       0.20549131       0.11137665       0.16276191
Cl      -3.76899055       1.21308170      -2.20757651      -0.08888201       0.58946160      -1.82216609      -0.16203056      -0.34648959       0.07111811
H       -1.81419189       2.80085964      -3.18031055      -0.42715883       0.10280196      -0.03368318       0.07367102      -0.20627395      -0.77195632
H       -2.00645955       4.62431559      -3.61806081       0.08377427      -0.12829220       0.27564999      -0.23836465      -0.37175605       0.27691607
H       -0.95804406       4.38850743      -1.51435852      -0.09197812      -0.09039462      -0.15945828      -0.42876791       0.05248928       0.41822276
H       -2.08151595       3.04857347      -0.98378176       0.00832476       0.07533798       0.01467606       0.31858382      -0.10817162       0.09866117
9
Properties=species:S:1:pos:R:3:momenta:R:3:forces:R:3 R1=H R2=H R3=CH3 R4=CH3 leaving_group=Cl nucleophile=Cl rxn=sn2 config=rcc label=H_H_CH3_CH3_Cl_Cl_sn2_rcc conformation=0 reactant_id=H_H_CH3_CH3_Cl_none_-_r product_id=H_H_CH3_CH3_none_Cl_sn2_pc mp2_author_energy=-29302.391748605172 mp2_my_energy=0 hash=59123 address=T id=71 energy=-17370.579000337642 pbc="F F F"
C       -2.72530697       4.23460723      -2.93418358       0.06878538       0.74284646      -0.03731229      -0.30665584      -2.06573243       0.69667856
C       -1.88839347       3.70070499      -1.81636718      -0.07654499      -0.59349226      -0.28682432       0.51054418      -0.32643372      -0.30112002
H       -2.15300492       4.21426893      -0.90553105       0.04919205       0.08748798      -0.06084968      -0.27048077      -0.10881504       0.48847692
F       -2.25103418       6.47906183      -2.66154208      -1.12283569      -0.99188402       0.87791681       0.35278983       1.46438358       0.15769169
Cl      -4.08566223       1.53917843      -3.59268072       0.37429398       1.71981342      -1.37270747      -0.01235963      -0.16192662       0.05445570
H       -2.79963907       3.65262948      -3.84000070      -0.23319981      -0.07664240      -0.13989973       0.29321592       0.66221991      -0.00960535
H       -2.58370977       5.35434869      -2.83543554       0.19435226       0.11073874       0.15633149      -0.14047847       0.33348631      -0.77725740
H       -0.83670370       3.98043658      -2.00165084      -0.02309598       0.07463348      -0.01142043      -0.32823700      -0.22732036      -0.23489867
H       -1.96909099       2.61021320      -1.69619902      -0.22337549      -0.00100251      -0.02330094      -0.09833823       0.43013838      -0.07442143
9
Properties=species:S:1:pos:R:3:momenta:R:3:forces:R:3 R1=H R2=H R3=CH3 R4=CH3 leaving_group=Cl nucleophile=Cl rxn=sn2 config=rcc label=H_H_CH3_CH3_Cl_Cl_sn2_rcc conformation=0 reactant_id=H_H_CH3_CH3_Cl_none_-_r product_id=H_H_CH3_CH3_none_Cl_sn2_pc mp2_author_energy=-29302.391748605172 mp2_my_energy=0 hash=59123 address=T id=71 energy=-17370.383267196954 pbc="F F F"
C       -3.16174065       4.53353050      -2.77114249      -0.47940322      -0.38910149       0.26639081       0.06045322      -2.16117591       0.23195078
C       -1.96227444       3.71729619      -2.32112684       0.47372291      -0.04372476      -0.46031205      -1.59859935       0.29262571      -0.77577279
H       -1.98932791       3.30468052      -1.30921777      -0.06084717       0.06001881      -0.16360858      -0.29703221       0.07002164      -0.20321886
F       -3.05055324       6.36192908      -1.28329136      -1.00302401      -0.02142601       1.28694247       0.04172168      -0.69269892      -0.75807844
Cl      -4.19658997       2.28238729      -4.85252544      -0.42443424       1.62446003      -2.27569287       0.26978675       0.39034044       0.41251092
H       -3.42205602       4.42806974      -3.80091013       0.27952713       0.16355552       0.21950580       0.09052794       0.45339325      -0.08519913
H       -3.23000790       5.48011975      -2.21090580      -0.07056781      -0.00945388      -0.21774958      -0.16804349       1.18843600       0.87231007
H       -1.27733807       4.50992019      -2.37580027      -0.16103191      -0.07769980       0.08876929       1.41699713       0.51518175      -0.07208104
H       -1.80407389       2.96371233      -3.09833534       0.08559474       0.16359941       0.02464623       0.18418834      -0.05612397       0.37757848
9
Properties=species:S:1:pos:R:3:momenta:R:3:forces:R:3 R1=H R2=H R3=CH3 R4=CH3 leaving_group=Cl nucleophile=Cl rxn=sn2 config=rcc label=H_H_CH3_CH3_Cl_Cl_sn2_rcc conformation=0 reactant_id=H_H_CH3_CH3_Cl_none_-_r product_id=H_H_CH3_CH3_none_Cl_sn2_pc mp2_author_energy=-29302.391748605172 mp2_my_energy=0 hash=59123 address=T id=71 energy=-17370.553198936122 pbc="F F F"
C       -3.84528320       4.47770435      -2.84131354       0.30605561      -0.15527378       0.11723510      -0.81864800       0.59491524       0.55512318
C       -2.40438403       4.25648183      -2.84968378      -0.68470794       0.48087457       0.80826889       2.17198825      -0.75975342       0.02890284
H       -2.21259613       3.60357052      -1.96534000       0.31846041       0.17027493       0.05507503       0.30675838       0.22741601      -0.78399713
F       -4.03371359       5.01802804      -0.58094732      -0.97426018      -1.34452109      -0.11529628      -0.12127185       0.08631628       0.31352126
Cl      -4.10246760       3.75354775      -5.80493954      -0.49256563       1.93136518      -2.29095335      -0.00461328      -0.02620071      -0.11201369
H       -4.25461075       5.15216899      -3.55094188       0.00058003       0.31117002       0.09669501      -0.11395734       0.24447966      -0.42517826
H       -4.17012616       4.72951130      -1.75294332       0.14532259      -0.05689189       0.25769586       0.26418714      -0.07222374      -0.40723378
H       -1.74125471       5.17249419      -2.72018448       0.15518201       0.07362212      -0.09809949      -1.36920805      -0.63718451      -0.07460085
H       -2.06678728       3.74518058      -3.78812400      -0.01424084      -0.07038706       0.04712308      -0.31523525       0.34223519       0.90547642
9
Properties=species:S:1:pos:R:3:momenta:R:3:forces:R:3 R1=H R2=H R3=CH3 R4=CH3 leaving_group=Cl nucleophile=Cl rxn=sn2 config=rcc label=H_H_CH3_CH3_Cl_Cl_sn2_rcc conformation=0 reactant_id=H_H_CH3_CH3_Cl_none_-_r product_id=H_H_CH3_CH3_none_Cl_sn2_pc mp2_author_energy=-29302.391748605172 mp2_my_energy=0 hash=59123 address=T id=71 energy=-17370.553507713492 pbc="F F F"
C       -4.32167752       4.37315355      -3.05471620      -0.76360515      -0.76228783      -0.04761150       0.86701325       1.04467293      -1.64804913
C       -2.84867105       4.74142557      -2.96185902       0.54604243       0.45102286      -0.09099493      -0.36347459      -0.43852523      -0.57757683
H       -2.33219862       4.27336949      -2.14282982      -0.06255121      -0.21787238       0.19154853      -0.13729180      -0.16071792       0.68330247
F       -4.67681192       3.75732005      -0.84733526      -0.70666225      -0.77410344      -0.63918234      -0.17160140      -0.22115916       1.13749370
Cl      -4.04605525       4.98618163      -6.14332553      -0.05583665       2.11223683      -0.27821536      -0.15921199      -0.07519083       0.35261962
H       -4.91567728       5.15711073      -3.54645640       0.05531611      -0.06532376       0.18175982       0.32532332      -0.72464933       0.37764287
H       -4.60448113       4.11608906      -1.97740785       0.07221762       0.13697423      -0.06948651      -0.30042043      -0.03585706      -0.23341956
H       -2.85429118       5.81414742      -2.85769689      -0.30845440       0.18945933      -0.03607257       0.24701588       0.41076321       0.15962685
H       -2.27155052       4.46847248      -3.84483710       0.14924436       0.09085857      -0.18388911      -0.30735223       0.20066340      -0.25163999
9
Properties=species:S:1:pos:R:3:momenta:R:3:forces:R:3 R1=H R2=H R3=CH3 R4=CH3 leaving_group=Cl nucleophile=Cl rxn=sn2 config=rcc label=H_H_CH3_CH3_Cl_Cl_sn2_rcc conformation=0 reactant_id=H_H_CH3_CH3_Cl_none_-_r product_id=H_H_CH3_CH3_none_Cl_sn2_pc mp2_author_energy=-29302.391748605172 mp2_my_energy=0 hash=59123 address=T id=71 energy=-17370.608314595924 pbc="F F F"
C       -4.59545636       4.33368266      -3.62906640       0.75910338       0.09457942      -0.46323346       0.54676724       0.25324431       0.15771813
C       -3.57646405       5.08312076      -2.80889878      -0.90866242      -0.18155167      -0.60113338      -0.87723162      -0.77493370      -0.51440908
H       -2.75988437       4.42381840      -2.56148064       0.02002168       0.18923082       0.13366784       0.36647360      -0.11636219       0.39973458
F       -5.15474348       2.70290679      -2.07368242      -0.65801212      -0.19024869      -0.83300689      -0.21894038      -0.52960364       0.41857179
Cl      -4.09300766       6.24355918      -6.00551474      -0.26604347       1.95363290       0.69689864      -0.06898702      -0.09329007       0.08152905
H       -5.48396132       4.87159697      -3.77901223      -0.09004873      -0.12453884      -0.26450031      -0.69765942       0.98731044      -0.66854515
H       -4.95171700       3.43566441      -3.03610932       0.11452100      -0.16630311      -0.04533673       0.40884862      -0.41942538       0.32553037
H       -4.10036255       5.49466115      -1.95091938       0.13289202      -0.42896068       0.21496850      -0.06521369      -0.27332851       0.38188831
H       -3.20984797       5.88374784      -3.39091981      -0.24242032       0.08467674       0.13129142       0.60594267       0.96638873      -0.58201801
9
Properties=species:S:1:pos:R:3:momenta:R:3:forces:R:3 R1=H R2=H R3=CH3 R4=CH3 leaving_group=Cl nucleophile=Cl rxn=sn2 config=rcc label=H_H_CH3_CH3_Cl_Cl_sn2_rcc conformation=0 reactant_id=H_H_CH3_CH3_Cl_none_-_r product_id=H_H_CH3_CH3_none_Cl_sn2_pc mp2_author_energy=-29302.391748605172 mp2_my_energy=0 hash=59123 address=T id=71 energy=-17370.584227769796 pbc="F F F"
C       -4.98283507       4.58533901      -4.31091307       1.17740954       0.64500815      -0.43918528      -0.56745357       0.66240050      -0.01567077
C       -5.16851247       5.10119932      -2.90595413      -1.12713726       0.12177829       0.42240002       0.12522375      -0.17887567       0.32017797
H       -4.56537274       4.58041001      -2.16214149      -0.20120227      -0.28337865      -0.06235822       0.50592857      -0.25150390      -0.24518796
F       -5.11166260       2.26330429      -4.04864811      -0.44637150       0.11413202      -1.49685942      -0.25862313      -0.10223080       0.13368784
Cl      -4.13711866       7.30640957      -5.39299828      -0.62818952       0.90476847       0.70710397       0.10822694       0.38044579      -0.07570012
H       -5.43462404       5.23241124      -5.08039631       0.02776022       0.07379468      -0.02712070       0.26383227      -0.93838933       0.61697321
H       -5.15692028       3.43811005      -4.35568050       0.00983794      -0.09391596       0.10353919       0.32032682       0.43385942      -0.00603658