9
Properties=species:S:1:pos:R:3:momenta:R:3:forces:R:3 R1=H R2=H R3=CH3 R4=CH3 leaving_group=Cl nucleophile=Cl rxn=sn2 config=rcc label=H_H_CH3_CH3_Cl_Cl_sn2_rcc conformation=0 reactant_id=H_H_CH3_CH3_Cl_none_-_r product_id=H_H_CH3_CH3_none_Cl_sn2_pc mp2_author_energy=-29302.391748605172 mp2_my_energy=0 hash=59123 address=T id=71 energy=-17370.412368016237 pbc="F F F"
C        0.12542541       0.11270554      -0.00029240      -1.04541141      -0.92940792      -0.23265151      -0.09214561       1.11788396      -0.00082481
C        1.62503867       0.00847468       0.00156754      -0.38193487       0.12829559       0.55403306      -0.06338950      -0.85342640       0.00215309
H        1.99473018      -0.50605055       0.89354482       0.01284478       0.06148153       0.05775128       0.00320508       0.00300841       0.00517082
F        0.89788639       2.64149152      -0.00442372       0.06324913       0.31884754       1.39847653      -0.23271315      -0.10403772      -0.00076135
Cl      -0.69504884      -1.53494042       0.00509220       0.32847603       0.35943644      -1.19623579       0.38207948      -0.16174994      -0.00050876
H       -0.22306082       0.64592326      -0.87549887       0.02443469      -0.34110958       0.16039494      -0.00302890      -0.00293595      -0.00472561
H       -0.22431889       0.65275656       0.87018381       0.03542110       0.17386824      -0.25510464      -0.00396382      -0.00350204       0.00469305
H        1.88822962       1.08069343      -0.00059746      -0.09474628      -0.09680684       0.00890628       0.00778691       0.00253743      -0.00033365
H        1.99700981      -0.51031959      -0.88698835      -0.07496180       0.03396134      -0.42742800       0.00216950       0.00222225      -0.00486279
9
Properties=species:S:1:pos:R:3:momenta:R:3:forces:R:3 R1=H R2=H R3=CH3 R4=CH3 leaving_group=Cl nucleophile=Cl rxn=sn2 config=rcc label=H_H_CH3_CH3_Cl_Cl_sn2_rcc conformation=0 reactant_id=H_H_CH3_CH3_Cl_none_-_r product_id=H_H_CH3_CH3_none_Cl_sn2_pc mp2_author_energy=-29302.391748605172 mp2_my_energy=0 hash=59123 address=T id=71 energy=-17370.276513937508 pbc="F F F"
C       -0.20281635       0.04527226       0.04384759       0.13265373      -0.30638315       1.09362253       0.89650967      -0.19275998      -0.81161128
C        1.29562212      -0.18149242       0.23719234      -0.22915429       0.74667115       0.14422048      -0.94624849      -0.58369337       0.18648463
H        1.49141355      -1.11553579       0.86436162      -0.05309736       0.05287290      -0.08352802      -0.06856093       1.28238829      -0.95462448
F        0.05472214       2.15332388       1.62475025      -0.78528930      -1.43755322       0.77952452       0.14902045      -0.58989339      -0.47066039
Cl      -0.86581445      -1.39358348      -0.94573182      -0.70719130       0.87778635      -1.60510530       0.26071628       0.44792432       0.12493660
H       -0.36579027       0.97303080      -0.47336687       0.16615176      -0.26522049      -0.23418695      -0.08341121       0.11376065      -0.55412252
H       -0.78067226       0.13542731       0.91026408       0.13407541      -0.03043901      -0.26740924      -0.42950057      -0.17577298       1.44987449
H        1.52403736       0.74916628       0.75402776      -0.06946118       0.08864750       0.04246468       0.27246723       0.04765836       0.42573047
H        1.78087356      -0.19192299      -0.75896981      -0.00876801      -0.09177919       0.21583338      -0.05099243      -0.34961190       0.60399249
9
Properties=species:S:1:pos:R:3:momenta:R:3:forces:R:3 R1=H R2=H R3=CH3 R4=CH3 leaving_group=Cl nucleophile=Cl rxn=sn2 config=rcc label=H_H_CH3_CH3_Cl_Cl_sn2_rcc conformation=0 reactant_id=H_H_CH3_CH3_Cl_none_-_r product_id=H_H_CH3_CH3_none_Cl_sn2_pc mp2_author_energy=-29302.391748605172 mp2_my_energy=0 hash=59123 address=T id=71 energy=-17370.119399066054 pbc="F F F"
C       -0.82492892      -0.08148771       0.17488610      -0.59181396       0.12915563       0.61668363       1.92741659      -2.31991398      -2.35102697
C        0.61304874      -0.26624752       0.51300278       0.18784059      -0.38448840      -0.02361204       0.13674691       1.41630850      -0.12922194
H        0.96343459      -1.25749942       0.42350339       0.17875174      -0.21281163       0.27824447       0.34185711      -1.33268075      -0.39803746
F       -0.96913811       0.54371400       2.72165780      -1.36322535      -1.75052876       0.30562680      -0.10100194       0.14143024       0.30359488
Cl      -0.81016459      -0.69281113      -1.65077665      -0.28776048       1.52532207      -1.31286143      -0.60389247       0.61454700       0.79704871
H       -1.04275687       0.91325506       0.24923121       0.09055359      -0.09250622       0.17371094      -0.90907756       2.46742887      -0.22022246
H       -1.50514747      -0.65635900       0.70882301      -0.02073878      -0.00625544       0.01450277      -1.06473607      -1.03690110       0.83472340
H        0.62266401       0.01127452       1.56175181      -0.02825277      -0.07117560      -0.11156331       0.26257738       0.53866512       0.30582541
H        1.16697230       0.40367842      -0.18771379      -0.06218247       0.37522062       0.17338671       0.01011005      -0.48888391       0.85731644
9
Properties=species:S:1:pos:R:3:momenta:R:3:forces:R:3 R1=H R2=H R3=CH3 R4=CH3 leaving_group=Cl nucleophile=Cl rxn=sn2 config=rcc label=H_H_CH3_CH3_Cl_Cl_sn2_rcc conformation=0 reactant_id=H_H_CH3_CH3_Cl_none_-_r product_id=H_H_CH3_CH3_none_Cl_sn2_pc mp2_author_energy=-29302.391748605172 mp2_my_energy=0 hash=59123 address=T id=71 energy=-17370.161916617544 pbc="F F F"
C       -1.19125555      -0.45267230       0.13924144      -0.23248671      -0.99290372      -0.16896331       0.95748871       2.85980657       0.57877482
C        0.10567432      -0.39001419       0.89451808      -0.98157138       0.10554033      -0.53401190       1.12465860      -0.30576320      -1.13046262
H        0.84739769      -1.12526137       0.40134631      -0.05517959       0.24454288      -0.13709904      -0.87038327       1.24435963       0.95358557
F       -2.13780846      -1.51174018       2.27172700      -0.58901908      -1.33688278      -0.82043829       0.06290853      -0.12584209       0.14180823
Cl      -0.92120197       0.34575027      -1.49501546       0.28309316       1.58422734       1.67785370       0.27192096      -0.23138125      -0.90062444
H       -1.92990345       0.17316885       0.58566933       0.05042233       0.15715430      -0.01646777      -0.46709154       0.01728377       0.46806288
H       -1.50442515      -1.42518458       0.15430140      -0.16424557      -0.24216448      -0.13708726      -1.08072794      -2.34160445      -0.60850434
H       -0.26543550      -0.72989284       1.84210051      -0.06596294       0.03470484       0.16997449       0.09165022      -0.55777760       0.80169363
H        0.52490564       0.63198079       0.99194466       0.09294281       0.01813469       0.06623044      -0.09042427      -0.55908137      -0.30433372
9
Properties=species:S:1:pos:R:3:momenta:R:3:forces:R:3 R1=H R2=H R3=CH3 R4=CH3 leaving_group=Cl nucleophile=Cl rxn=sn2 config=rcc label=H_H_CH3_CH3_Cl_Cl_sn2_rcc conformation=0 reactant_id=H_H_CH3_CH3_Cl_none_-_r product_id=H_H_CH3_CH3_none_Cl_sn2_pc mp2_author_energy=-29302.391748605172 mp2_my_energy=0 hash=59123 address=T id=71 energy=-17370.260262996027 pbc="F F F"
C       -1.59901700      -0.65255193       0.05804751       0.19282644      -0.36569637       0.13129585       0.67964616       1.53797360       0.29024951
C       -0.73729168      -0.74136496       1.27270752       0.13670086      -0.53843205       0.61597341      -1.01036020      -1.44106979       0.03150415
H        0.30945181      -0.73358563       1.13956765       0.07773054       0.06858307       0.15548826       1.35974992      -0.07911764      -0.69188589
F       -2.57156707      -2.74399069       0.98675037      -0.59528529      -0.68892650      -1.18569950      -0.22422719      -0.45412648       0.10402690
Cl      -1.10127812       1.00650630      -0.86199054      -0.56988599       1.03599448       0.32320610      -0.06919281      -0.10964557       0.19563145
H       -2.61781415      -0.55688008       0.35127298      -0.29620089       0.12859960       0.04127170      -0.59184161       0.00931382      -0.20096629
H       -1.44419909      -1.37908572      -0.68783960       0.02333808      -0.00758055       0.04537730       0.09352622      -0.84525715      -0.52833494
H       -1.11391219      -1.75496505       1.60427057       0.18207516       0.09765680      -0.00438346       0.24081753       0.80449415       0.14217925
H       -0.95858537       0.03692082       1.96522201      -0.21256611      -0.00327033      -0.05868082      -0.47811802       0.57743507       0.65759586
9
Properties=species:S:1:pos:R:3:momenta:R:3:forces:R:3 R1=H R2=H R3=CH3 R4=CH3 leaving_group=Cl nucleophile=Cl rxn=sn2 config=rcc label=H_H_CH3_CH3_Cl_Cl_sn2_rcc conformation=0 reactant_id=H_H_CH3_CH3_Cl_none_-_r product_id=H_H_CH3_CH3_none_Cl_sn2_pc mp2_author_energy=-29302.391748605172 mp2_my_energy=0 hash=59123 address=T id=71 energy=-17370.126451300024 pbc="F F F"
C       -1.88385303      -0.74519106      -0.12240110       0.46878627      -0.31792987      -0.30783097      -0.04555625      -1.26298121       1.26671142
C       -1.79177367      -1.17172265       1.33457618      -0.95782508      -0.45361307      -0.05538305      -0.67788248      -1.50106597      -0.13671517
H       -0.84488328      -0.83688926       1.79659116      -0.18779556      -0.01645935      -0.26196940      -0.63287286       0.05712142       0.00947134
F       -2.55405216      -3.05425801      -0.58646435       0.17532907      -0.20179643      -0.93332191       0.29440178       0.98180290       0.20372043
Cl      -1.46246199       1.16646952       0.09506311      -0.46287754       1.16719955       1.54693319      -0.10577678       0.43108741      -0.50221163
H       -2.87104631      -0.93196092      -0.52006555      -0.31425364       0.11642109      -0.06648441       0.14628503       0.23999480      -0.33152755
H       -1.07775498      -1.16994372      -0.70597922      -0.00823422      -0.10923135       0.00865173      -0.19846618       0.16248244      -0.22774343
H       -1.80773459      -2.28771415       1.21699119      -0.09879411      -0.37675642       0.09387093      -0.02200911       0.84630755       0.16792196
H       -2.72981746      -0.89908552       1.90640867       0.06022202      -0.14888032       0.05527627       1.24187686       0.04525066      -0.44962737
9
Properties=species:S:1:pos:R:3:momenta:R:3:forces:R:3 R1=H R2=H R3=CH3 R4=CH3 leaving_group=Cl nucleophile=Cl rxn=sn2 config=rcc label=H_H_CH3_CH3_Cl_Cl_sn2_rcc conformation=0 reactant_id=H_H_CH3_CH3_Cl_none_-_r product_id=H_H_CH3_CH3_none_Cl_sn2_pc mp2_author_energy=-29302.391748605172 mp2_my_energy=0 hash=59123 address=T id=71 energy=-17370.075152905556 pbc="F F F"
C       -2.18448683      -0.88020424      -0.11256197      -0.58960626      -0.44044845       0.29227632       1.00647542       0.37636518      -0.05948535
C       -2.96420504      -1.74631362       0.78422622       0.23071946       0.35179981       0.11582325      -0.57404449      -0.22505746       1.37542637
H       -2.63491599      -1.85668369       1.82883146      -0.24304780      -0.07011286       0.07372090       0.40610836       0.39449785      -0.45216169
F       -2.22298780      -2.57397229      -1.74329100       0.50779580       0.64995374      -0.95979764      -0.03688994       0.07694230       0.17573569
Cl      -1.89734054       0.96814630       1.00666156      -0.90132266      -1.20917053       0.84038874      -0.15667102      -0.52471527      -0.00222280
H       -2.70935735      -0.44730288      -0.92657552      -0.10601442       0.35316827      -0.13252131      -0.16977901       0.13027244      -0.51239825
H       -1.14779636      -1.14536724      -0.32239777       0.11687897      -0.16739337      -0.00383034      -0.56215528       0.13134596       0.23509917
H       -2.88105761      -2.69680803       0.29947684       0.02171824      -0.00351857      -0.16452016       0.01964627      -0.61322818      -0.47950553
H       -4.02629168      -1.49442264       0.84440547      -0.22332936       0.23050191       0.00982589       0.06730969       0.25357718      -0.28048759
9
Properties=species:S:1:pos:R:3:momenta:R:3:forces:R:3 R1=H R2=H R3=CH3 R4=CH3 leaving_group=Cl nucleophile=Cl rxn=sn2 config=rcc label=H_H_CH3_CH3_Cl_Cl_sn2_rcc conformation=0 reactant_id=H_H_CH3_CH3_Cl_none_-_r product_id=H_H_CH3_CH3_none_Cl_sn2_pc mp2_author_energy=-29302.391748605172 mp2_my_energy=0 hash=59123 address=T id=71 energy=-17370.112081267383 pbc="F F F"
C       -2.38208216      -0.93306019      -0.38844473      -1.36786262       0.02483894       0.50305365       0.47086518       1.13021140       0.05137636
C       -3.79430121      -1.40039619      -0.41205693      -0.56219619       0.17147197      -0.15016904      -0.71405949       1.74274881       0.49252238
H       -3.91689793      -2.46080438      -0.37848560       0.05205380      -0.16610535       0.05057917       0.19415183      -0.84046695       0.32356074
F       -1.91567293      -1.70351669      -2.41120443       1.23445411       0.45592549      -1.69639596       0.64408074      -0.77190644      -2.57447515
Cl      -2.74625402       0.05541202       2.06594100      -1.10615956      -1.53770604       1.01542145       0.11580839       0.06149268       0.52777572
H       -2.15982986       0.13427905      -0.18012792       0.10207178      -0.10874070       0.27081850      -0.48788424      -1.30836661      -0.74070031
H       -2.00302979      -1.26009213      -1.47385558       0.08063865       0.14802121      -0.02186379      -0.24233047       0.41715622       2.35508337
H       -4.18763139      -1.12369536      -1.40283974      -0.07588940       0.32327234      -0.00287718       0.05961232       0.27116627       0.46507033
H       -4.34339430      -0.89746561       0.41368490       0.03299121       0.27478350       0.12828925      -0.04024426      -0.70203539      -0.90021344
9
Properties=species:S:1:pos:R:3:momenta:R:3:forces:R:3 R1=H R2=H R3=CH3 R4=CH3 leaving_group=Cl nucleophile=Cl rxn=sn2 config=rcc label=H_H_CH3_CH3_Cl_Cl_sn2_rcc conformation=0 reactant_id=H_H_CH3_CH3_Cl_none_-_r product_id=H_H_CH3_CH3_none_Cl_sn2_pc mp2_author_energy=-29302.391748605172 mp2_my_energy=0 hash=59123 address=T id=71 energy=-17370.467612689645 pbc="F F F"
C       -2.62593459      -0.92146492      -0.37441663      -0.51006535       0.43200498       0.39049188      -1.48626809      -0.92109635       0.37815911
C       -4.10506226      -0.80720372      -0.81047842      -0.02139948       0.64958874      -0.40553302       0.37254379      -1.35001915       2.64920631
H       -4.48741601      -1.77604898      -1.21864074      -0.28165009      -0.07535617      -0.02856088       0.47453428       0.91496233      -0.11371231
F       -1.83330813      -0.69956211      -2.35995325       0.04592652       0.75426973       0.81811502       0.62257225      -0.10434157      -1.35446543
Cl      -3.44126116      -0.96898790       2.24242313      -0.58771591      -1.88980918      -0.59953579       0.09649439      -0.07673474       0.07600451
H       -2.24987550      -0.06510107       0.14006691      -0.18714386       0.25794688      -0.16884605      -0.05006976       0.40841782       0.28099205
H       -2.01361201      -1.13664121      -1.30667507       0.17195819      -0.41478155      -0.10000032      -0.41018574       0.43555351       0.36606171
H       -4.03463952       0.00548517      -1.47381035       0.16277523       0.01193879       0.23591753      -0.31456631       0.76722426      -1.22075031
H       -4.75652960      -0.56717330       0.07589347      -0.16147220      -0.07800115      -0.05969827       0.69494520      -0.07396611      -1.06149563
9
Properties=species:S:1:pos:R:3:momenta:R:3:forces:R:3 R1=H R2=H R3=CH3 R4=CH3 leaving_group=Cl nucleophile=Cl rxn=sn2 config=rcc label=H_H_CH3_CH3_Cl_Cl_sn2_rcc conformation=0 reactant_id=H_H_CH3_CH3_Cl_none_-_r product_id=H_H_CH3_CH3_none_Cl_sn2_pc mp2_author_energy=-29302.391748605172 mp2_my_energy=0 hash=59123 address=T id=71 energy=-17370.592484356348 pbc="F F F"
C       -2.91290899      -0.65232786      -0.34982550       0.36158058       0.45858941      -0.27836617      -1.49347414      -1.01577418       2.82069919
C       -4.31258135      -0.20362658      -0.62347891      -0.43781140       0.48677241       0.52155414      -0.34079315      -1.17218980       0.69265761
H       -4.89132392      -0.79421677      -1.36852474       0.19290306       0.09744342      -0.07734337       0.57896374       0.31425301       0.52814440
F       -1.79030872       0.14620789      -1.91550818       0.16757441       0.35215004       0.18330541       0.61575905       0.70947566      -1.15941637
Cl      -4.11907677      -2.01602654       1.94913318      -0.86168647      -1.74243479      -0.30155635       0.49040360       0.34390017      -0.60490083
H       -2.54553569      -0.22433490       0.58743893       0.00553835      -0.11647275       0.22067185      -0.12843848      -0.24371030      -0.32496771
H       -2.21635265      -0.44442590      -1.15694990      -0.18929361      -0.07458734       0.15842648      -0.06712845      -0.16561063      -0.36495204
H       -4.19621476       0.77759945      -0.95216128      -0.28183374       0.13738344      -0.20136897       0.30259512       1.77076347      -1.02587111
H       -4.85546324      -0.11133618       0.33351179      -0.10930593       0.10465197      -0.15599530       0.04211271      -0.54110739      -0.56139314
9
Properties=species:S:1:pos:R:3:momenta:R:3:forces:R:3 R1=H R2=H R3=CH3 R4=CH3 leaving_group=Cl nucleophile=Cl rxn=sn2 config=rcc label=H_H_CH3_CH3_Cl_Cl_sn2_rcc conformation=0 reactant_id=H_H_CH3_CH3_Cl_none_-_r product_id=H_H_CH3_CH3_none_Cl_sn2_pc mp2_author_energy=-29302.391748605172 mp2_my_energy=0 hash=59123 address=T id=71 energy=-17370.659779471855 pbc="F F F"
C       -3.27604061      -0.61943192      -0.04390925      -0.76810786       0.38088114       0.78137811      -1.74090775      -0.39770790      -0.00303706
C       -4.51248245       0.27822764      -0.06880057      -0.89052245       0.29204793      -0.06135609       0.40967662       0.09352119       2.32671169
H       -5.06284078       0.32673022      -0.99430572       0.05403023       0.17139839       0.11133353       0.43030524      -0.07490270      -0.70721051
F       -2.09266089       0.69293658      -0.99773364       0.33942417       0.12918641       0.84059143       1.06356063       0.91726504      -0.64769684
Cl      -4.60447498      -2.73874318       1.14301079      -0.70716727      -1.72027318      -1.54506176      -0.57735213      -0.68722275       0.33281131
H       -2.85722358      -1.07429093       0.84624758       0.21695861      -0.11877208      -0.06321289      -0.43699733       0.85107681      -0.04678013
H       -2.54404674      -0.20093650      -0.68700442      -0.21342101       0.31786547      -0.04639751       0.81098642       0.38565146      -0.72467583
H       -4.16785659       1.30113492       0.25751512       0.14336968       0.31117572       0.00727539      -0.17761011      -1.00638763      -0.55729124
H       -5.25353937      -0.05928763       0.66319551       0.27371801      -0.16277822       0.06880554       0.21833841      -0.08129353       0.02716861
9
Properties=species:S:1:pos:R:3:momenta:R:3:forces:R:3 R1=H R2=H R3=CH3 R4=CH3 leaving_group=Cl nucleophile=Cl rxn=sn2 config=rcc label=H_H_CH3_CH3_Cl_Cl_sn2_rcc conformation=0 reactant_id=H_H_CH3_CH3_Cl_none_-_r product_id=H_H_CH3_CH3_none_Cl_sn2_pc mp2_author_energy=-29302.391748605172 mp2_my_energy=0 hash=59123 address=T id=71 energy=-17370.836909859085 pbc="F F F"
C       -3.66947128      -0.55130561       0.18379662      -0.14364856      -0.17441416       0.11566320       0.81410328       1.56522108      -0.75786979
C       -4.84757637       0.16066067       0.76514084      -0.54953641       0.29463992       0.23864737       1.35824964       0.09864958       1.11168048
H       -5.16446348       0.91216185       0.06187825      -0.05317064       0.22740878       0.12503038      -0.50252058       0.28147967      -0.23349557
F       -2.36533895       1.04148713      -0.07424905      -0.78773929      -0.65270216       0.91560904      -0.80248771      -0.98573528       0.17807545
Cl      -4.99148050      -3.10742484       0.24552939       0.20236767       0.06025864      -1.46490490      -0.05100738      -0.01753768      -0.00744126
H       -3.19088167      -1.29202354       0.75001179       0.05757749      -0.17758445       0.14960466       0.07438164      -0.88794618       0.88874023
H       -2.88753928       0.12223996      -0.17025226      -0.11438177       0.11448928       0.04955661      -0.01490533       0.55314801      -0.22554413
H       -4.49614983       0.68421795       1.71948717       0.27759344      -0.13028701      -0.30546865      -0.38100735      -0.74071369      -1.12668940
H       -5.60396476      -0.58057275       0.96999361       0.01252366       0.15556106       0.24234601      -0.49480621       0.13343449       0.17254399
9
Properties=species:S:1:pos:R:3:momenta:R:3:forces:R:3 R1=H R2=H R3=CH3 R4=CH3 leaving_group=Cl nucleophile=Cl rxn=sn2 config=rcc label=H_H_CH3_CH3_Cl_Cl_sn2_rcc conformation=0 reactant_id=H_H_CH3_CH3_Cl_none_-_r product_id=H_H_CH3_CH3_none_Cl_sn2_pc mp2_author_energy=-29302.391748605172 mp2_my_energy=0 hash=59123 address=T id=71 energy=-17370.74151704663 pbc="F F F"
C       -4.11603633      -0.53442861       0.45250563       0.54897872       0.39102512       1.40760273      -1.63872941      -1.42095042      -0.32916919
C       -5.26009602      -0.60191873       1.40499140       0.04059263      -0.47887763      -0.08729438      -1.46384007       2.20697765      -0.21407283
H       -6.04265608       0.24308084       1.33125927      -0.16645140       0.15500599       0.26811866       1.45872321      -0.99964313      -0.14137500
F       -2.89261121       0.98150319       1.05399731      -0.50653329      -0.13567951       0.54916003       0.03374590       0.36596850       0.42201457
Cl      -5.23276050      -2.97475410      -0.69473924      -0.65896180      -0.30465356      -2.12997391       0.11638673       0.11857160      -0.10768156
H       -3.55072227      -1.45106708       0.53254557      -0.16233467       0.04354640      -0.05813143       0.56066131       0.13884078      -0.12537672
H       -3.61573659       0.40265278       0.60348298      -0.45857034       0.17646646       0.09547124       0.56107383       0.20391095      -0.26429167
H       -4.79273465      -0.50518414       2.35567165      -0.02087202      -0.25705811       0.16465741       0.39439359       0.09509509       0.95109665
H       -5.82715791      -1.50727774       1.35910268      -0.18063218       0.00759433      -0.11546848      -0.02241509      -0.70877102      -0.19114424
9
Properties=species:S:1:pos:R:3:momenta:R:3:forces:R:3 R1=H R2=H R3=CH3 R4=CH3 leaving_group=Cl nucleophile=Cl rxn=sn2 config=rcc label=H_H_CH3_CH3_Cl_Cl_sn2_rcc conformation=0 reactant_id=H_H_CH3_CH3_Cl_none_-_r product_id=H_H_CH3_CH3_none_Cl_sn2_pc mp2_author_energy=-29302.391748605172 mp2_my_energy=0 hash=59123 address=T id=71 energy=-17370.658019314542 pbc="F F F"
C       -4.68847940      -0.84710400       0.71659651      -0.54924188       0.14287623       0.12587816       0.53833662       2.29320237       3.05281361
C       -5.40948670      -1.71216556       1.69858039      -1.01604190      -1.03349532      -0.01234628      -0.32357826      -0.53014827      -0.07282694
H       -5.72878945      -1.17366605       2.57005919       0.12660330      -0.11298244      -0.06284371       0.04325424       0.73047989       0.35902376
F       -3.97050944       0.47907341       2.14586853      -0.24292982      -0.49295844       0.30276859      -0.34418624      -0.74946454      -0.78279321
Cl      -5.38434718      -2.36050959      -1.44133583       0.27223405       1.39334503      -0.31897990      -0.50413691      -0.70742100      -0.93796419
H       -3.92882197      -1.35004446       0.18519007      -0.07817111       0.25794337       0.13801562       0.85277709      -0.14864475      -0.35100839
H       -4.34645843       0.07281897       1.24500758      -0.06301855       0.01344746      -0.04473673      -0.12948521      -0.45666780      -0.59794201
H       -4.81117678      -2.53420845       2.06228019       0.20372293      -0.26960571       0.00589289       0.63254802      -0.02889295      -0.08107610
H       -6.28853408      -2.15044529       1.28916573      -0.10681714      -0.27260761      -0.04619231      -0.76552935      -0.40244296      -0.58822653
9
Properties=species:S:1:pos:R:3:momenta:R:3:forces:R:3 R1=H R2=H R3=CH3 R4=CH3 leaving_group=Cl nucleophile=Cl rxn=sn2 config=rcc label=H_H_CH3_CH3_Cl_Cl_sn2_rcc conformation=0 reactant_id=H_H_CH3_CH3_Cl_none_-_r product_id=H_H_CH3_CH3_none_Cl_sn2_pc mp2_author_energy=-29302.391748605172 mp2_my_energy=0 hash=59123 address=T id=71 energy=-17370.76944067323 pbc="F F F"
C       -5.42677599      -1.17456446       1.10263590      -0.64287617      -0.00803314      -0.59028294       0.54797380       0.42014032      -2.00148901
C       -5.36283373      -2.61880233       1.33805318       0.15065932       0.11610363      -0.35015570       0.31535915       0.41934621       1.39956970
H       -6.33418208      -2.86449022       1.71853460       0.15320029      -0.09120856       0.04823842      -0.50056247      -0.75262497       0.59070397
F       -5.03124735      -0.38226067       2.95550852      -0.77763981      -1.43540215      -0.76486432      -0.29430893      -0.35555942      -0.61944711
Cl      -5.49203771      -1.63849325      -1.80791167       0.24305452       1.00756208       1.96076348      -0.08718381       0.03422453       0.29467722
H       -4.72219838      -0.75930770       0.41412076      -0.10993522       0.01549121       0.20069229       0.31467779      -0.05405804      -0.23927238
H       -5.47579600      -0.55391759       1.95954535      -0.01352837      -0.10263682      -0.03796793      -0.08367632       0.45198522       1.70646776
H       -4.57348071      -2.73916945       2.11978972      -0.12482773       0.09893267      -0.30141525      -0.56512273      -0.04860511      -0.62722959
H       -5.19857100      -3.21995344       0.46661005      -0.09662744       0.08565678      -0.09169841       0.35284354      -0.11484874      -0.50398056
9
Properties=species:S:1:pos:R:3:momenta:R:3:forces:R:3 R1=H R2=H R3=CH3 R4=CH3 leaving_group=Cl nucleophile=Cl rxn=sn2 config=rcc label=H_H_CH3_CH3_Cl_Cl_sn2_rcc conformation=0 reactant_id=H_H_CH3_CH3_Cl_none_-_r product_id=H_H_CH3_CH3_none_Cl_sn2_pc mp2_author_energy=-29302.391748605172 mp2_my_energy=0 hash=59123 address=T id=71 energy=-17370.716727860534 pbc="F F F"
C       -6.06183344      -1.64172997       1.13735696      -0.42094336       0.02362427       0.19782028       0.37675051       1.47420203       1.59252543
C       -5.23900639      -2.82917154       0.89699260      -0.29071993       1.05688495      -0.90790384      -0.14027849      -2.65699750       0.21291805
H       -5.88224481      -3.80959781       0.93899825       0.08610048      -0.27862983      -0.25307095       1.12214296       1.65955853      -0.10663650
F       -6.38622364      -1.89160609       3.18142328      -1.24658614      -1.55570615       2.06677620       0.30296084       0.05080595      -1.24735974
Cl      -5.56547613      -0.80447167      -1.70904879       0.53644989       0.82764258      -0.33682205      -0.17388683      -0.21145841       0.81590531
H       -5.43446203      -0.72053645       1.02814156      -0.11000212      -0.23926921      -0.11109144      -0.84618466      -0.77701313       0.05012211
H       -6.50534229      -1.71660657       2.17539303      -0.26105789      -0.46520394      -0.08337818       0.20515221       0.22607481      -1.38755402
H       -4.56605245      -2.84486401       1.77890261      -0.06339325       0.03541017      -0.33689856      -0.29948504      -0.01134896      -0.45689471
H       -4.63762908      -2.84455792      -0.03412909       0.02313277       0.14572620      -0.13032582      -0.54717150       0.24617669       0.52697408
9
Properties=species:S:1:pos:R:3:momenta:R:3:forces:R:3 R1=H R2=H R3=CH3 R4=CH3 leaving_group=Cl nucleophile=Cl rxn=sn2 config=rcc label=H_H_CH3_CH3_Cl_Cl_sn2_rcc conformation=0 reactant_id=H_H_CH3_CH3_Cl_none_-_r product_id=H_H_CH3_CH3_none_Cl_sn2_pc mp2_author_energy=-29302.391748605172 mp2_my_energy=0 hash=59123 address=T id=71 energy=-17370.76302915715 pbc="F F F"
C       -6.57864340      -1.96954754       0.89432151      -0.28830989       0.04453046       0.10656635      -0.54137910       0.99099969       1.66322636
C       -5.35513379      -2.74907769       0.77849811      -0.21450772      -0.06283653      -0.08897463       0.49847415      -0.91947948      -1.98050785
H       -5.62989097      -3.75681029       0.44572548      -0.08487902      -0.03554200      -0.05703202       0.14872385      -0.03846557       0.24378887
F       -7.27748015      -3.21883443       2.37177022       0.30438038      -0.25243843      -1.22987757      -0.01076747       0.60029295      -0.49356227
Cl      -5.73800036      -0.23166472      -1.07448483      -0.25709296       0.15586701       1.07246502       0.25292820       0.53479496      -0.71239327
H       -6.36893477      -0.91588257       1.26367240      -0.19440273      -0.12408815       0.10866259      -0.59607165      -1.60520003      -0.30034311
H       -7.29262758      -2.54569027       1.51266928      -0.22372036      -0.01157017      -0.15363748       0.12034280       0.21736271       0.11400497