9
Properties=species:S:1:pos:R:3:momenta:R:3:forces:R:3 R1=H R2=H R3=CH3 R4=CH3 leaving_group=Cl nucleophile=Cl rxn=sn2 config=rcc label=H_H_CH3_CH3_Cl_Cl_sn2_rcc conformation=0 reactant_id=H_H_CH3_CH3_Cl_none_-_r product_id=H_H_CH3_CH3_none_Cl_sn2_pc mp2_author_energy=-29302.391748605172 mp2_my_energy=0 hash=59123 address=T id=71 energy=-17370.412368016237 pbc="F F F"
C        0.12542541       0.11270554      -0.00029240      -0.30739520      -0.19226434       0.59963393      -0.09214561       1.11788396      -0.00082481
C        1.62503867       0.00847468       0.00156754      -0.15932972       0.11157755       0.81487948      -0.06338950      -0.85342640       0.00215309
H        1.99473018      -0.50605055       0.89354482      -0.04084252       0.24389654      -0.00232963       0.00320508       0.00300841       0.00517082
F        0.89788639       2.64149152      -0.00442372      -0.22867230      -0.53247493      -0.41143997      -0.23271315      -0.10403772      -0.00076135
Cl      -0.69504884      -1.53494042       0.00509220       1.62021112      -0.17172239       0.81209103       0.38207948      -0.16174994      -0.00050876
H       -0.22306082       0.64592326      -0.87549887      -0.25016638       0.00888300      -0.27167298      -0.00302890      -0.00293595      -0.00472561
H       -0.22431889       0.65275656       0.87018381       0.16462808       0.08773720       0.01555305      -0.00396382      -0.00350204       0.00469305
H        1.88822962       1.08069343      -0.00059746      -0.02841990       0.28734383       0.07779026       0.00778691       0.00253743      -0.00033365
H        1.99700981      -0.51031959      -0.88698835       0.01271714      -0.13140411       0.04440050       0.00216950       0.00222225      -0.00486279
9
Properties=species:S:1:pos:R:3:momenta:R:3:forces:R:3 R1=H R2=H R3=CH3 R4=CH3 leaving_group=Cl nucleophile=Cl rxn=sn2 config=rcc label=H_H_CH3_CH3_Cl_Cl_sn2_rcc conformation=0 reactant_id=H_H_CH3_CH3_Cl_none_-_r product_id=H_H_CH3_CH3_none_Cl_sn2_pc mp2_author_energy=-29302.391748605172 mp2_my_energy=0 hash=59123 address=T id=71 energy=-17370.279125826437 pbc="F F F"
C        0.44533701       0.00079176       0.53264252       0.71066404      -0.30157982       0.76855750      -1.68721930      -0.15421809       0.56958054
C        1.45477671       0.58984299       1.47948921      -0.07391725       1.17127653       0.52687367      -1.12119784       0.49428202       0.66507811
H        1.08046169       0.59263894       2.53066613      -0.16974180      -0.05068148       0.03946491       0.37646040       0.01871276      -0.70246117
F        0.20651771       2.39231611      -0.55583045      -0.56025648      -0.74709858      -0.21685553       0.21220940      -0.17047613       0.25468868
Cl       0.28812796      -1.84427305       0.87864743       1.21844026      -0.66746856       1.21897510       0.50711158       0.45436531      -0.03572902
H        0.77649522       0.19765957      -0.46538227       0.19352737      -0.19090736      -0.09339136      -0.21773058      -0.24985026      -0.64649854
H       -0.62139561       0.33596371       0.67467088      -0.18292448       0.13967919       0.04907695       1.69700024       0.12300300      -0.25034127
H        1.55944509       1.61028342       1.09000028      -0.16145965      -0.06322818       0.08591323      -0.26568306      -0.03009935       0.13942531
H        2.40616769       0.09636292       1.42486153       0.17988415       0.28469209       0.09710424       0.49904915      -0.48571925       0.00625735
9
Properties=species:S:1:pos:R:3:momenta:R:3:forces:R:3 R1=H R2=H R3=CH3 R4=CH3 leaving_group=Cl nucleophile=Cl rxn=sn2 config=rcc label=H_H_CH3_CH3_Cl_Cl_sn2_rcc conformation=0 reactant_id=H_H_CH3_CH3_Cl_none_-_r product_id=H_H_CH3_CH3_none_Cl_sn2_pc mp2_author_energy=-29302.391748605172 mp2_my_energy=0 hash=59123 address=T id=71 energy=-17370.264261898854 pbc="F F F"
C        0.89795229      -0.24538214       1.00551239       0.22154808       0.32246025       0.12233282       0.13282549      -0.54975761       0.32394906
C        0.24938725       0.65462803       2.02482960      -0.13419172      -0.17140860       0.01206561      -0.26761927       0.95515870      -1.10464286
H       -0.41631011       0.16220388       2.72067048      -0.03336611      -0.15208004       0.04707473       0.03284981      -0.43134395       0.24717959
F       -0.19106625       1.56929836      -0.55470742      -0.13083896      -0.72751303       0.28904385      -0.06981242       0.18158669      -0.37820255
Cl       1.61245712      -1.60801574       2.12403927       1.61684974       0.60227266       1.94767441       0.31396270       0.34545260      -0.66940219
H        1.67972900       0.30426028       0.40317993      -0.18522871       0.10890087      -0.00132076      -0.88450184      -0.95353798       0.78760193
H        0.19244030      -0.78677121       0.36100080       0.02155370      -0.21035351      -0.10026374       0.38160978       0.54608170       0.15504939
H       -0.32972635       1.35058078       1.36900808      -0.19798105      -0.01412559      -0.12310376       0.50666178      -0.19827854       0.31661324
H        1.04662794       1.18724088       2.53993633      -0.15306291      -0.13595835       0.00566029      -0.14597603       0.10463839       0.32185439
9
Properties=species:S:1:pos:R:3:momenta:R:3:forces:R:3 R1=H R2=H R3=CH3 R4=CH3 leaving_group=Cl nucleophile=Cl rxn=sn2 config=rcc label=H_H_CH3_CH3_Cl_Cl_sn2_rcc conformation=0 reactant_id=H_H_CH3_CH3_Cl_none_-_r product_id=H_H_CH3_CH3_none_Cl_sn2_pc mp2_author_energy=-29302.391748605172 mp2_my_energy=0 hash=59123 address=T id=71 energy=-17370.23026594508 pbc="F F F"
C        1.07838088      -0.31575932       1.83345621       0.30687591       0.00268218       0.26498812       1.42581998       1.93409546      -1.53155944
C       -0.25075529      -0.46077175       2.47529867       0.34790134      -0.94287259       0.36555648       0.45851888       0.97883404       1.82460404
H       -0.31223550      -1.47227047       2.84826645       0.03755391      -0.10129916      -0.02052598      -0.54575904      -0.40794779       0.05378775
F       -0.19199866       0.31033860      -0.29409518      -0.21039862      -0.92052162      -0.03006245      -0.23513514      -0.03151744      -0.01406904
Cl       2.49038035      -0.69043571       3.03734211      -0.06137125       1.48201837       1.14333132      -0.44148325      -0.42667302       0.34738861
H        1.35879009       0.73103103       1.50937614       0.04521558      -0.01904923      -0.06311294      -0.87655743      -1.46924597       0.26362875
H        1.13523428      -0.97347112       0.96055594       0.21581572       0.12518941       0.21209393       0.27916812       0.25432733       0.38887002
H       -0.90249883      -0.20705582       1.65511139       0.14268780       0.04185966       0.18061508      -0.40744563      -0.15000960      -0.47843922
H       -0.42746610       0.24674362       3.33908050       0.16578934      -0.03283700       0.07075171       0.34287351      -0.68186300      -0.85421146
9
Properties=species:S:1:pos:R:3:momenta:R:3:forces:R:3 R1=H R2=H R3=CH3 R4=CH3 leaving_group=Cl nucleophile=Cl rxn=sn2 config=rcc label=H_H_CH3_CH3_Cl_Cl_sn2_rcc conformation=0 reactant_id=H_H_CH3_CH3_Cl_none_-_r product_id=H_H_CH3_CH3_none_Cl_sn2_pc mp2_author_energy=-29302.391748605172 mp2_my_energy=0 hash=59123 address=T id=71 energy=-17370.20143334956 pbc="F F F"
C        1.42191773      -0.43265354       2.43513159       0.38787096      -0.11242542       0.46661525       0.86736488      -0.23632805       0.16357839
C        1.07334391      -1.80494216       2.98751372       0.71146917      -0.70927560       0.31252420      -0.67550547      -0.19258521      -1.23815071
H        1.89439093      -2.51754212       2.95121801       0.03123706      -0.04153613       0.04489351       0.32791879       0.15148882       0.23062181
F       -0.04352575      -1.17409360       0.58570534       0.01865680      -0.71265561       0.16538518      -0.26646911      -0.06138991      -0.43485939
Cl       2.52892277       0.44096695       3.86256207      -0.11739798       1.41144475       0.31212263      -0.29138783      -0.14379321      -0.08109629
H        0.53255419       0.15605840       2.26731362      -0.00160189      -0.17162197       0.10372901       0.21938597       0.23416568       0.03980914
H        2.15059494      -0.36768289       1.59530677      -0.11125048       0.18132307       0.35719987      -1.04463689      -0.44116953       0.72624507
H        0.33148354      -2.12927656       2.18333266       0.14865498      -0.07278273       0.04657164       0.65911040       0.46159882       0.84466342
H        0.61175295      -1.79225441       3.98479658      -0.13978363      -0.11437489       0.18114739       0.20421925       0.22801259      -0.25081146
9
Properties=species:S:1:pos:R:3:momenta:R:3:forces:R:3 R1=H R2=H R3=CH3 R4=CH3 leaving_group=Cl nucleophile=Cl rxn=sn2 config=rcc label=H_H_CH3_CH3_Cl_Cl_sn2_rcc conformation=0 reactant_id=H_H_CH3_CH3_Cl_none_-_r product_id=H_H_CH3_CH3_none_Cl_sn2_pc mp2_author_energy=-29302.391748605172 mp2_my_energy=0 hash=59123 address=T id=71 energy=-17370.092551512407 pbc="F F F"
C        1.55879474      -0.72998091       3.19093747       0.03100798      -0.31204165       0.53584543       1.53828066       0.83170580      -1.90058112
C        2.73969666      -1.61497850       3.45617381      -0.16309652       0.73785509      -0.53248107      -0.18521462      -0.94108146      -0.19285089
H        3.71158259      -1.24447370       3.09524331      -0.04045723       0.10949034       0.07857663      -0.48844273       0.09341616       0.04193211
F        0.59254505      -2.47773950       1.86624515       1.15075752      -1.14761020       1.18013544      -0.06381267      -0.28374555      -0.09800867
Cl       2.14914972       0.91649678       4.23857502      -0.06546165       0.47166469       0.50044630      -0.22941247       0.36757479       0.31190252
H        0.63798827      -1.12849743       3.53943578       0.16618813       0.04763621      -0.01388156      -0.60529470       0.10113342       0.25280015
H        1.54153344      -0.31234098       2.15457997      -0.07446698      -0.22313239       0.32210040      -0.35120574      -0.54768718       1.15878851
H        2.48385448      -2.57868922       2.98387822       0.04609795      -0.08295631      -0.18115113       0.05581985       0.52344786      -0.02803314
H        2.79319449      -1.75513928       4.52673095      -0.08114913       0.04187342       0.18975262       0.32928243      -0.14476384       0.45405054
9
Properties=species:S:1:pos:R:3:momenta:R:3:forces:R:3 R1=H R2=H R3=CH3 R4=CH3 leaving_group=Cl nucleophile=Cl rxn=sn2 config=rcc label=H_H_CH3_CH3_Cl_Cl_sn2_rcc conformation=0 reactant_id=H_H_CH3_CH3_Cl_none_-_r product_id=H_H_CH3_CH3_none_Cl_sn2_pc mp2_author_energy=-29302.391748605172 mp2_my_energy=0 hash=59123 address=T id=71 energy=-17370.03789161134 pbc="F F F"
C        1.93764403      -1.29032460       4.09241760       0.60736674      -0.62365903      -0.01954851      -0.36816242       0.54060899       2.11855778
C        3.22138653      -1.15435763       3.42501786      -0.29914246      -0.47663263       0.24219220       0.97469424       0.28980969      -1.13359072
H        3.02795128      -0.84117543       2.39033495      -0.19011723       0.00922416      -0.02480865       0.14006460      -0.11828827       0.09865172
F        2.18190807      -3.54016576       3.78921047       1.36521490      -0.47885883       1.11084960       0.05259169      -1.45712515      -0.21139762
Cl       1.74296434       1.18750847       4.57992832      -0.40117900       0.94968418       0.48772656      -0.01069708       0.18743827       0.04150654
H        1.92036999      -1.39634323       5.20243055       0.20588102      -0.00870395       0.16276601      -0.10375151       0.20149435      -1.16932383
H        1.05548656      -1.02693298       3.57035133      -0.42182316       0.06159599      -0.08570790      -0.62265676       0.06329026      -0.13404675
H        3.73192478      -2.12687096       3.38933035       0.09381451      -0.04384282       0.03945927      -0.27453970       0.25962663       0.21136225
H        3.83135985      -0.38338749       3.88087130      -0.03118066       0.26892741       0.07936145       0.21245694       0.03314524       0.17828063
9
Properties=species:S:1:pos:R:3:momenta:R:3:forces:R:3 R1=H R2=H R3=CH3 R4=CH3 leaving_group=Cl nucleophile=Cl rxn=sn2 config=rcc label=H_H_CH3_CH3_Cl_Cl_sn2_rcc conformation=0 reactant_id=H_H_CH3_CH3_Cl_none_-_r product_id=H_H_CH3_CH3_none_Cl_sn2_pc mp2_author_energy=-29302.391748605172 mp2_my_energy=0 hash=59123 address=T id=71 energy=-17370.028284533142 pbc="F F F"
C        2.68956166      -1.41062001       5.17527133       0.02204345      -0.02492905       0.82999634      -1.58424998      -0.31982265      -0.93849711
C        2.90332915      -1.38799892       3.64152566      -0.20957465      -0.88715591       0.96235534      -1.33618620       0.95371551       1.22089806
H        1.92682775      -1.15261424       3.16350144       0.18410008      -0.10247809       0.05856376       0.78341197      -0.20676529       0.20626119
F        3.82335701      -3.32195657       5.34861634       1.28619124       1.08609284       0.64727912       0.09128140      -0.17374711      -0.11185984
Cl       1.42395284       0.94725634       4.75528202      -0.46800176      -0.55362769       0.33403115      -0.06074793       0.08060412       0.20815535
H        3.26836652      -0.73975878       5.72102165       0.04881567       0.14060916      -0.33305942       0.79507336       0.85396827       0.72511614
H        1.70897129      -1.63804261       5.68488076       0.21996616       0.04396042       0.03807305       1.28938066       0.16983312      -1.34510611
H        3.25993485      -2.34009824       3.33855259      -0.05526578      -0.22230626      -0.07023208       0.37143802      -0.96669084      -0.18335591
H        3.63694014      -0.60732780       3.36937188       0.15734165       0.08294789       0.07606214      -0.34940129      -0.39109511       0.21838824
9
Properties=species:S:1:pos:R:3:momenta:R:3:forces:R:3 R1=H R2=H R3=CH3 R4=CH3 leaving_group=Cl nucleophile=Cl rxn=sn2 config=rcc label=H_H_CH3_CH3_Cl_Cl_sn2_rcc conformation=0 reactant_id=H_H_CH3_CH3_Cl_none_-_r product_id=H_H_CH3_CH3_none_Cl_sn2_pc mp2_author_energy=-29302.391748605172 mp2_my_energy=0 hash=59123 address=T id=71 energy=-17370.13433205412 pbc="F F F"
C        3.37777998      -1.27278269       5.72999780       0.67780241      -0.14717819       0.71541557       1.61348874       0.22927571      -2.72359057
C        2.91846799      -2.42728249       4.86760456      -0.16695882       0.28822512       1.03238870       0.50834471       0.35524009       1.64215536
H        1.90148560      -2.24770919       4.73039519       0.12275201      -0.04434557       0.15219928      -1.81312777       0.39059577      -0.54030865
F        5.20908912      -2.10272253       6.49522354       0.95301651       0.81743881       0.01437035      -0.17250942       0.04005619      -0.05776640
Cl       1.18982525       0.40322013       5.07601312      -0.34045973      -1.15943494      -0.23818201       0.03942246      -0.09072894       0.01868299
H        3.78082629      -0.33695668       5.28236799       0.05879818       0.05596737       0.29244813      -0.53312739      -1.16151730       0.36876142
H        2.96583069      -1.21928884       6.66813799      -0.15628554      -0.09639258       0.09252962      -0.80030741       0.22173490       1.88030862
H        2.96247272      -3.34766885       5.44912860      -0.01814540      -0.14797143       0.36956840       0.44500663      -0.10897764      -0.02621251
H        3.37419719      -2.54601529       3.91266068      -0.02211466       0.02525617      -0.05328139       0.71280945       0.12432123      -0.56203025
9
Properties=species:S:1:pos:R:3:momenta:R:3:forces:R:3 R1=H R2=H R3=CH3 R4=CH3 leaving_group=Cl nucleophile=Cl rxn=sn2 config=rcc label=H_H_CH3_CH3_Cl_Cl_sn2_rcc conformation=0 reactant_id=H_H_CH3_CH3_Cl_none_-_r product_id=H_H_CH3_CH3_none_Cl_sn2_pc mp2_author_energy=-29302.391748605172 mp2_my_energy=0 hash=59123 address=T id=71 energy=-17370.211553353838 pbc="F F F"
C        3.95906211      -1.17001992       6.23439173       0.33431040      -0.16484465       0.02758882       0.18841313       1.79653981       3.51830406
C        3.57726696      -2.19096241       7.29903626       0.52889865       0.86975112       1.35359410       1.05363493       0.66149669      -2.03222334
H        2.53660991      -2.20900543       7.29821497      -0.22310543      -0.28364304       0.19931199      -2.07602979       0.03283298       0.40859232
F        5.90489730      -1.08350597       7.00094359       0.65173047       0.74643885       0.37197763      -1.34277587      -0.06111805      -0.53863526
Cl       1.12393689      -0.58527510       5.33486072      -0.17179056      -1.44929783       0.32465982       0.50914725      -0.20264781       0.17939146
H        4.15382514      -1.43944511       5.26397484      -0.06271669      -0.07612584       0.32331184       0.29072975      -0.54532219      -1.82957335
H        3.64370553      -0.10798492       6.45781025       0.02378837       0.06467391      -0.09062677       0.50980037      -1.49112300      -0.45986961
H        3.99924707      -1.87038815       8.22096420       0.01776277      -0.06058352       0.07816501       0.42797857       0.13643958       0.67912749
H        3.90328923      -3.17882657       7.01303592       0.11549455      -0.09385214       0.01676775       0.43910167      -0.32709801       0.07488624
9
Properties=species:S:1:pos:R:3:momenta:R:3:forces:R:3 R1=H R2=H R3=CH3 R4=CH3 leaving_group=Cl nucleophile=Cl rxn=sn2 config=rcc label=H_H_CH3_CH3_Cl_Cl_sn2_rcc conformation=0 reactant_id=H_H_CH3_CH3_Cl_none_-_r product_id=H_H_CH3_CH3_none_Cl_sn2_pc mp2_author_energy=-29302.391748605172 mp2_my_energy=0 hash=59123 address=T id=71 energy=-17370.48279871126 pbc="F F F"
C        4.27599449      -0.99194221       6.95134955      -0.65831878      -0.13894724      -0.37186471      -1.47043989      -0.97167340       0.56960557
C        3.70869548      -0.87590454       8.32944416       0.67687109       0.52680496       1.10111611      -0.50699880      -1.93566447       0.07063811
H        2.75521782      -1.48286978       8.44747443      -0.06354206      -0.04330890       0.01549036       0.99501215       1.12196840      -0.47699759
F        6.09829111      -0.54074533       7.35867287      -0.07319789       0.84775172       0.69211742       1.37125786       0.49735654       0.46229359
Cl       1.53007922      -1.74841506       5.91930649       1.53434048      -1.49317458       1.42224292      -0.03935064      -0.03290464      -0.05045807
H        4.63080283      -1.96955022       6.68336476       0.11710253      -0.41479091      -0.03880501      -0.21318815      -0.07973140      -0.33213067
H        4.16396627      -0.26210428       6.20246577      -0.07662757      -0.30901232      -0.15547201      -0.17316614       0.60331761      -0.50983830
H        3.61974256       0.11058466       8.73072754      -0.10339103       0.29600325      -0.07431008      -0.25661936       0.78314721      -0.06263380
H        4.44007551      -1.39821228       8.93249453      -0.14876693       0.28483992      -0.00700546       0.29349297       0.01418415       0.32952115
9
Properties=species:S:1:pos:R:3:momenta:R:3:forces:R:3 R1=H R2=H R3=CH3 R4=CH3 leaving_group=Cl nucleophile=Cl rxn=sn2 config=rcc label=H_H_CH3_CH3_Cl_Cl_sn2_rcc conformation=0 reactant_id=H_H_CH3_CH3_Cl_none_-_r product_id=H_H_CH3_CH3_none_Cl_sn2_pc mp2_author_energy=-29302.391748605172 mp2_my_energy=0 hash=59123 address=T id=71 energy=-17370.59337555692 pbc="F F F"
C        4.40724154      -0.88066147       7.53143326       0.81703379      -0.15166522       0.21520399       1.13206002       0.50540598       0.14087976
C        3.60864573       0.18430335       8.16850557      -0.44731740      -0.12105052      -0.25868485      -0.14993014       0.23232367      -0.56766286
H        2.54450049      -0.04757553       8.11598336       0.25557114       0.10970145      -0.11029744       0.13170604       0.00904668       0.25319546
F        6.09674468      -0.02695211       8.05868900      -0.24237519       0.25284433       0.51276639      -0.18021328      -0.12684868      -0.04158781
Cl       2.25085504      -2.79603065       6.95514688       0.92971470      -0.92557612       1.53363424      -0.49564925      -0.27771830      -0.10646055
H        4.56338271      -1.81101596       8.03916134       0.04967812       0.39913996      -0.14052937       0.01361267      -0.14917451       0.08718632
H        4.70663644      -0.82051076       6.50407808      -0.16535880      -0.09215250       0.01109164      -0.11842475      -0.03813053      -0.16515720
H        3.80419927       1.13436132       7.65136583      -0.13562126      -0.13823371      -0.06282958      -0.10518695      -0.20460568       0.14134681
H        3.99230553       0.27554116       9.17758646      -0.14740362       0.33022215       0.25994720      -0.22797437       0.04970136       0.25826007
9
Properties=species:S:1:pos:R:3:momenta:R:3:forces:R:3 R1=H R2=H R3=CH3 R4=CH3 leaving_group=Cl nucleophile=Cl rxn=sn2 config=rcc label=H_H_CH3_CH3_Cl_Cl_sn2_rcc conformation=0 reactant_id=H_H_CH3_CH3_Cl_none_-_r product_id=H_H_CH3_CH3_none_Cl_sn2_pc mp2_author_energy=-29302.391748605172 mp2_my_energy=0 hash=59123 address=T id=71 energy=-17370.339575755097 pbc="F F F"
C        4.56261575      -0.71363395       8.27353054       0.27538644      -0.38996354      -0.18398066       1.08089081      -1.59945869       1.06502259
C        3.71345090       0.01894684       7.34050133       0.09901027       0.40891116      -0.44875914       0.66613053       1.84683214       0.22346710
H        2.86628116      -0.54654253       7.16601099      -0.00924642      -0.09816290       0.06362298      -2.23148761      -1.20067351      -0.14400309
F        5.73968919       0.75085219       8.77515731      -0.16463702       1.15604970       1.04540986       0.26574459       0.43075744       0.10934293
Cl       3.07972506      -3.47483423       8.22809470       1.04106472      -1.15742130       1.99740771       0.15172239       0.45466110      -0.09339905
H        4.26813220      -0.99049864       9.31560804       0.00913234       0.10845259       0.16600232       0.21898398       0.41987555      -1.28841573
H        5.42245249      -1.24380273       7.79019381      -0.02468034      -0.10070240      -0.02016384      -0.92634539       0.27140878       0.82976399
H        4.24071325      -0.00422002       6.40077773       0.06981187      -0.11287127      -0.02336543       0.26860739       0.62402127      -0.45884262
H        3.44010860       1.07373757       7.65226622      -0.18551969      -0.22343376      -0.21460487       0.50575331      -1.24742408      -0.24293612
9
Properties=species:S:1:pos:R:3:momenta:R:3:forces:R:3 R1=H R2=H R3=CH3 R4=CH3 leaving_group=Cl nucleophile=Cl rxn=sn2 config=rcc label=H_H_CH3_CH3_Cl_Cl_sn2_rcc conformation=0 reactant_id=H_H_CH3_CH3_Cl_none_-_r product_id=H_H_CH3_CH3_none_Cl_sn2_pc mp2_author_energy=-29302.391748605172 mp2_my_energy=0 hash=59123 address=T id=71 energy=-17370.558763109504 pbc="F F F"
C        4.48479243      -0.66876828       8.85136271      -0.08782934       0.28725956       0.56331786      -0.78334257       0.49459313      -0.52789510
C        4.45003615      -0.77525488       7.39260024       0.78685855      -0.10752053      -0.78511889       0.69956061      -1.31858007      -0.43663586
H        4.19944898      -1.85038513       7.21618533       0.02048239      -0.19973805      -0.23215875       0.43106964       0.81540947      -0.22588569
F        4.91961893       1.22810259       8.95521790      -0.67470689      -0.13729724       0.14635567       0.03498032       0.20214800       0.02873458
Cl       3.87028400      -3.64005312       9.22848939       1.05233912      -0.47706850       1.80311941      -0.01095346      -0.02774447       0.01017494
H        3.57833300      -0.63922410       9.39992568      -0.07537008      -0.02469378      -0.13769061      -0.45295651       0.05141940       0.40945757
H        5.34600386      -0.98474421       9.32908339      -0.03613613       0.04872957       0.32577741       1.26704373      -0.48035172       1.00959441
H        5.46465016      -0.51020057       7.00294453      -0.15797983       0.09288158      -0.10340065      -0.93293938      -0.23309517       0.01804141
H        3.67525541      -0.17104574       6.95940900       0.00636545       0.21011885       0.20872421      -0.25246238       0.49620144      -0.28558626
9
Properties=species:S:1:pos:R:3:momenta:R:3:forces:R:3 R1=H R2=H R3=CH3 R4=CH3 leaving_group=Cl nucleophile=Cl rxn=sn2 config=rcc label=H_H_CH3_CH3_Cl_Cl_sn2_rcc conformation=0 reactant_id=H_H_CH3_CH3_Cl_none_-_r product_id=H_H_CH3_CH3_none_Cl_sn2_pc mp2_author_energy=-29302.391748605172 mp2_my_energy=0 hash=59123 address=T id=71 energy=-17370.37365106009 pbc="F F F"
C        4.35360040      -0.79685586       9.29419759      -0.56993139      -0.62614118       0.27772018      -0.30472099      -1.27752539       2.30108521
C        5.43464189      -0.99936466       8.31480456       0.80492631      -0.02225287       0.32292743      -1.00407038      -0.64522584      -1.11415356
H        5.87006740      -2.02327994       8.31550465       0.10839489       0.18014027      -0.04674163      -0.87040510       0.67907938       0.04049546
F        3.85830075       0.97656558       8.73905688      -0.59218615      -0.55903603       0.15464457      -0.30260517       1.08378550      -0.62575230
Cl       4.78125610      -3.62587483      10.29110830       1.27735737       1.05367325       1.68129453      -0.00240996      -0.06263605       0.07015026
H        3.43418915      -1.34488638       9.07086985       0.18621002      -0.19051851       0.05938740       0.28327456       0.40849752       0.19966242
H        4.42152475      -0.38079378      10.34616265      -0.22758374      -0.15498817      -0.09917018       0.43898194      -0.82608553      -1.75160246
H        6.24819244      -0.32874199       8.37882277       0.01655374      -0.02120467      -0.08003266       0.79026262       1.08449680       0.33833317
H        4.86107024      -0.76819001       7.37416923       0.10806663      -0.06936119       0.11472561       0.97169248      -0.44438638       0.54178180
9
Properties=species:S:1:pos:R:3:momenta:R:3:forces:R:3 R1=H R2=H R3=CH3 R4=CH3 leaving_group=Cl nucleophile=Cl rxn=sn2 config=rcc label=H_H_CH3_CH3_Cl_Cl_sn2_rcc conformation=0 reactant_id=H_H_CH3_CH3_Cl_none_-_r product_id=H_H_CH3_CH3_none_Cl_sn2_pc mp2_author_energy=-29302.391748605172 mp2_my_energy=0 hash=59123 address=T id=71 energy=-17370.53586219847 pbc="F F F"
C        4.34288258      -1.11952996       9.64921538       0.00088696      -0.17608710      -0.28191811      -0.38806240      -1.49724643      -0.76406302
C        5.63021609      -0.48914252       9.33513309       0.40154347       0.16539164       0.35393079      -1.01226740       1.36451281       0.55033308
H        6.41270137      -1.11718878       9.65458063      -0.03793737       0.02586118       0.13336899       1.16770902      -0.54877464       0.65004033
F        3.40241293       0.08371023       8.42777540      -0.51176516      -0.95886733       0.10972818      -0.18039554       0.04559376      -0.04439224
Cl       5.56440686      -3.46386065      11.21486751       1.10206935       0.59441294       1.28699078       0.00435562       0.12176881      -0.03931195
H        4.10323403      -2.11741676       9.24567680      -0.04549941      -0.31491017       0.04534946       0.37708334       0.82980606      -0.00149913
H        3.80557559      -0.94010354      10.53369334      -0.16337540       0.20393594      -0.03285335      -0.33725622       0.49922372       0.91738623
H        5.65487047       0.55087315       9.75852753      -0.00814892      -0.14982140       0.13359148       0.22725436      -1.02422325      -0.24096763
H        5.61518573      -0.39972817       8.27816041       0.17939931       0.27211603       0.21908790       0.14157922       0.20933917      -1.02752567
9
Properties=species:S:1:pos:R:3:momenta:R:3:forces:R:3 R1=H R2=H R3=CH3 R4=CH3 leaving_group=Cl nucleophile=Cl rxn=sn2 config=rcc label=H_H_CH3_CH3_Cl_Cl_sn2_rcc conformation=0 reactant_id=H_H_CH3_CH3_Cl_none_-_r product_id=H_H_CH3_CH3_none_Cl_sn2_pc mp2_author_energy=-29302.391748605172 mp2_my_energy=0 hash=59123 address=T id=71 energy=-17370.534514375155 pbc="F F F"
C        4.48861291      -1.59548027      10.03663866      -0.00796962      -0.59290365      -0.19986575      -0.85520563       0.73841844       0.08978030
C        4.91427721      -0.23041072      10.41993705      -0.47019454       0.73097687       0.32596243       2.16874217      -0.24458538      -0.18634584
H        5.71592003      -0.34051503      11.19501375       0.00002038       0.04974050       0.02155961      -0.49219562       0.21442131      -0.81193781
F        3.56255452      -1.08456260       8.37586094       0.25871914      -0.58824049       0.15956830       0.09481227      -0.05075994       0.45046986
Cl       6.38821374      -3.01224500      12.05404768       1.23017367       0.19102042       1.18094058      -0.21202131       0.16117613      -0.13919309
H        5.08889964      -2.27917859       9.51827891       0.07961443       0.12659753       0.28268830       0.78858967      -0.45269314      -0.39994728
H        3.66948054      -1.98015527      10.60364708      -0.22246363      -0.00709771      -0.02237084      -0.30846632      -0.46758226       0.02924010