9
Properties=species:S:1:pos:R:3:momenta:R:3:forces:R:3 R1=H R2=H R3=CH3 R4=CH3 leaving_group=Cl nucleophile=Cl rxn=sn2 config=rcc label=H_H_CH3_CH3_Cl_Cl_sn2_rcc conformation=0 reactant_id=H_H_CH3_CH3_Cl_none_-_r product_id=H_H_CH3_CH3_none_Cl_sn2_pc mp2_author_energy=-29302.391748605172 mp2_my_energy=0 hash=59123 address=T id=71 energy=-17370.412368016237 pbc="F F F"
C        0.12542541       0.11270554      -0.00029240       0.62511221       0.59008788      -0.52916494      -0.09214561       1.11788396      -0.00082481
C        1.62503867       0.00847468       0.00156754       0.86832938       0.32837143      -0.48069226      -0.06338950      -0.85342640       0.00215309
H        1.99473018      -0.50605055       0.89354482      -0.35034622      -0.12055324       0.06907562       0.00320508       0.00300841       0.00517082
F        0.89788639       2.64149152      -0.00442372       0.88122596      -0.80962670       0.42567453      -0.23271315      -0.10403772      -0.00076135
Cl      -0.69504884      -1.53494042       0.00509220       0.02956989      -0.59735168       0.29046840       0.38207948      -0.16174994      -0.00050876
H       -0.22306082       0.64592326      -0.87549887      -0.29486266       0.13681830       0.05075677      -0.00302890      -0.00293595      -0.00472561
H       -0.22431889       0.65275656       0.87018381       0.11218632       0.14163939      -0.06643988      -0.00396382      -0.00350204       0.00469305
H        1.88822962       1.08069343      -0.00059746      -0.09986445       0.29900062      -0.00761365       0.00778691       0.00253743      -0.00033365
H        1.99700981      -0.51031959      -0.88698835       0.21919440      -0.04502059       0.12218003       0.00216950       0.00222225      -0.00486279
9
Properties=species:S:1:pos:R:3:momenta:R:3:forces:R:3 R1=H R2=H R3=CH3 R4=CH3 leaving_group=Cl nucleophile=Cl rxn=sn2 config=rcc label=H_H_CH3_CH3_Cl_Cl_sn2_rcc conformation=0 reactant_id=H_H_CH3_CH3_Cl_none_-_r product_id=H_H_CH3_CH3_none_Cl_sn2_pc mp2_author_energy=-29302.391748605172 mp2_my_energy=0 hash=59123 address=T id=71 energy=-17370.211153337095 pbc="F F F"
C        1.05835679       0.11267295      -0.11436210       0.02627507      -0.22345026      -0.42529587       0.98483910       1.46323539       1.17235474
C        2.38886400      -0.52773282      -0.45872587       1.09893808       0.04409983      -0.59333407      -0.35663793      -0.26154345      -0.17056561
H        2.58948030      -1.32988187       0.24466563       0.08373996       0.08576506       0.08296166       0.40894997       0.12666734       0.55013335
F        2.16530822       2.46735775       0.32520923       0.65411073      -0.82368457       0.11139598       0.06746681      -0.14308197      -0.14875963
Cl      -0.10528087      -1.27878579      -0.05566844       0.39858091       0.81112613       0.21933418      -0.51133922      -0.16143906      -0.20591634
H        0.81620297       0.90382421      -0.82783534       0.09418322       0.22409630       0.20860948      -0.34790840      -0.41421139      -0.05028580
H        1.11201940       0.65135039       0.85200002       0.21800309      -0.12771108       0.01570015      -0.14253207      -0.55631987      -0.58714888
H        3.19159380       0.22858146      -0.50864189       0.05962879       0.04961724       0.19228086      -0.59819411      -0.40805472      -0.02839859
H        2.22135396      -1.09755972      -1.37253168       0.13641777      -0.14649702       0.01335682       0.49535585       0.35474773      -0.53141324
9
Properties=species:S:1:pos:R:3:momenta:R:3:forces:R:3 R1=H R2=H R3=CH3 R4=CH3 leaving_group=Cl nucleophile=Cl rxn=sn2 config=rcc label=H_H_CH3_CH3_Cl_Cl_sn2_rcc conformation=0 reactant_id=H_H_CH3_CH3_Cl_none_-_r product_id=H_H_CH3_CH3_none_Cl_sn2_pc mp2_author_energy=-29302.391748605172 mp2_my_energy=0 hash=59123 address=T id=71 energy=-17370.329513780624 pbc="F F F"
C        1.87620286       0.09804663      -0.02820033      -0.36372892       0.79067000      -0.05661869       0.12315099       1.43143495       1.08401561
C        3.10155288      -0.45817517      -0.72354240      -0.60273013       0.29163498       0.32279512      -1.16470053      -0.79242574      -0.01468549
H        3.41286739      -1.38791441      -0.24184033      -0.16233152       0.02263485       0.07202474       0.13318557       0.05806900       0.04325686
F        3.71647394       1.94649048       0.45976376       2.73068504       0.27532379       0.01342242      -0.59158991      -0.30358553      -0.06956160
Cl       0.47873613      -1.10406409      -0.18554335       0.86146959      -1.06393077      -0.61821639       0.10614510      -0.13299618      -0.37964821
H        1.53631655       1.06760231      -0.39789333       0.09584992      -0.04645366       0.06488142       0.21513547      -0.37646574      -0.43631966
H        1.91941257       0.27867063       1.05331181       0.03882009      -0.40400292       0.08569048       0.80225283      -0.36002655      -0.50304269
H        3.82027792       0.34117409      -0.62071411       0.00033722       0.08685015      -0.04964374       0.42091656       0.40820516       0.25281832
H        2.87977012      -0.68386289      -1.77152413       0.25582663      -0.06261106      -0.01465322      -0.04449609       0.06779062       0.02316684
9
Properties=species:S:1:pos:R:3:momenta:R:3:forces:R:3 R1=H R2=H R3=CH3 R4=CH3 leaving_group=Cl nucleophile=Cl rxn=sn2 config=rcc label=H_H_CH3_CH3_Cl_Cl_sn2_rcc conformation=0 reactant_id=H_H_CH3_CH3_Cl_none_-_r product_id=H_H_CH3_CH3_none_Cl_sn2_pc mp2_author_energy=-29302.391748605172 mp2_my_energy=0 hash=59123 address=T id=71 energy=-17370.24249523217 pbc="F F F"
C        2.90095506       0.09613299       0.01298425       0.94515710      -1.02175219      -0.52388380      -1.35750735       0.97593260      -0.44536362
C        3.79684319      -0.55488917      -0.97688994       0.20291331       0.13134923      -0.59270510       1.42575897      -0.41197211       0.04626859
H        3.88893918      -1.64376648      -0.84696290      -0.00571958      -0.00400454       0.27738975      -0.39760080       0.24239458       0.09446449
F        5.07799198       1.34041781       0.59481926      -0.25276015      -0.58756795       0.06880113      -0.38261725      -0.13473143       0.01971563
Cl       1.14572069      -0.81158764      -0.29849237       1.80936412       1.63409142       0.36774510       0.62638881       0.27674943       0.25801995
H        2.62088120       1.14154168      -0.15512460       0.16857482      -0.06044227       0.16653890       0.42945267      -0.45711072      -0.44457788
H        3.08597390       0.05040379       1.06641867       0.39626588      -0.14255492      -0.11345803       0.48771101      -0.73813614       0.20739470
H        4.78962248      -0.11954106      -0.73552253       0.00031032      -0.18563558       0.16921577      -0.46504275       0.13239894      -0.01105039
H        3.56851378      -0.34964014      -2.02760697       0.21776224       0.10246730      -0.03961550      -0.36654331       0.11447485       0.27512853
9
Properties=species:S:1:pos:R:3:momenta:R:3:forces:R:3 R1=H R2=H R3=CH3 R4=CH3 leaving_group=Cl nucleophile=Cl rxn=sn2 config=rcc label=H_H_CH3_CH3_Cl_Cl_sn2_rcc conformation=0 reactant_id=H_H_CH3_CH3_Cl_none_-_r product_id=H_H_CH3_CH3_none_Cl_sn2_pc mp2_author_energy=-29302.391748605172 mp2_my_energy=0 hash=59123 address=T id=71 energy=-17370.072560157427 pbc="F F F"
C        4.18901782      -0.32867130      -0.01934185       0.08609808      -0.01241426       0.07176389      -0.18956041       1.21042307       0.91219760
C        4.73914438      -0.57622415      -1.36314696       0.38736399       0.16528519       0.50038800       0.27362134       0.24712858      -0.16178520
H        4.33712375      -1.49951950      -1.78161431      -0.16836209       0.07846251       0.02413642       0.04771862       0.16500826      -0.12101218
F        6.43135742       0.53784622       0.71528018       1.40131203      -0.67207447      -0.34320543      -0.75418764      -0.57239251      -0.38470730
Cl       2.06902169      -0.28610300      -0.35287898       0.98941771       0.30119505      -0.54860773       0.76688296      -0.27317708       0.03707396
H        4.44393753       0.58288232       0.51005488      -0.22322524      -0.05442829       0.17075446       0.05548923       0.07981376      -0.52759511
H        4.31160145      -1.12281753       0.68631357       0.13287579      -0.00019078      -0.08162156      -0.12308501      -0.54955147       0.12712713
H        5.80575231      -0.67061674      -1.13889041       0.17718771       0.12298642       0.11505516       0.05045953       0.02074527      -0.00003295
H        4.59685349       0.28244350      -2.03663621      -0.06630139      -0.03339959      -0.08027339      -0.12733860      -0.32799787       0.11873404
9
Properties=species:S:1:pos:R:3:momenta:R:3:forces:R:3 R1=H R2=H R3=CH3 R4=CH3 leaving_group=Cl nucleophile=Cl rxn=sn2 config=rcc label=H_H_CH3_CH3_Cl_Cl_sn2_rcc conformation=0 reactant_id=H_H_CH3_CH3_Cl_none_-_r product_id=H_H_CH3_CH3_none_Cl_sn2_pc mp2_author_energy=-29302.391748605172 mp2_my_energy=0 hash=59123 address=T id=71 energy=-17370.041512892905 pbc="F F F"
C        5.33621152      -0.38474872      -0.03442076       0.81747266       0.18717157      -0.11472954      -1.24877381      -0.81103135       0.76583338
C        5.71812584      -0.33909174      -1.44140274       0.46545231      -0.13844745      -0.55961260       0.19673565       0.81397768       0.05553457
H        5.11470144      -0.87941176      -2.15126350       0.12460905      -0.03245772      -0.20560776      -0.29193064      -0.28653929       0.04059686
F        7.63961349      -0.43120322       0.68110797       1.55832083      -0.55751204       0.44837959      -0.12709624       0.04738599      -0.08733541
Cl       2.82621966       0.08539649      -0.42941381       0.04456751       0.58330253      -0.00455993       0.03949336      -0.10592456      -0.10816275
H        6.18177826      -0.16226085       0.62531838       0.33743320      -0.36348215      -0.13102413       0.50898680       0.12386719       0.03819757
H        4.93214336      -1.36521692       0.21203028      -0.17266273       0.18861510       0.04279992      -0.09921410       0.28706417       0.17026955
H        6.70075630      -0.75291384      -1.30364492       0.08104352      -0.13071652       0.06586682       0.79632157      -0.40283276      -0.55010324
H        5.78640199       0.69560851      -1.74681304       0.03971084       0.13663501       0.25026166       0.22547741       0.33403294      -0.32483054
9
Properties=species:S:1:pos:R:3:momenta:R:3:forces:R:3 R1=H R2=H R3=CH3 R4=CH3 leaving_group=Cl nucleophile=Cl rxn=sn2 config=rcc label=H_H_CH3_CH3_Cl_Cl_sn2_rcc conformation=0 reactant_id=H_H_CH3_CH3_Cl_none_-_r product_id=H_H_CH3_CH3_none_Cl_sn2_pc mp2_author_energy=-29302.391748605172 mp2_my_energy=0 hash=59123 address=T id=71 energy=-17370.193561171243 pbc="F F F"
C        6.46343069      -0.55546372      -0.17280201       0.49256293       1.26998698      -0.65659534      -0.76252524       0.02712066       2.04567128
C        6.83503559      -0.23575036      -1.51029146       1.07758769      -0.09976337      -0.00221443      -0.79796973       1.10081675      -1.68413520
H        6.00776704       0.25751190      -2.04052404       0.13057497      -0.02395560      -0.06044787       0.31388235      -0.01961744       0.12950047
F        8.56116764      -1.26538472       0.57821545       0.00404281      -0.83887264      -0.03670567      -0.72324557       0.37254421       0.05790856
Cl       3.81596985       0.45678206      -0.43510567       1.86584749      -0.06102946       0.76513553       0.51404787      -0.14066693      -0.02592232
H        7.35510847      -0.65296189       0.49470090       0.02125177      -0.14415777      -0.25774167       0.65656087      -0.77647095      -0.03063040
H        5.62947305      -1.18929581       0.04798048      -0.04122742       0.04900802      -0.13122487       0.02337780      -0.32814357      -0.10436315
H        7.12770078      -1.07262830      -2.11280042       0.18806828       0.02076850       0.10094621       0.21105563      -0.97799967      -0.03345389
H        7.66934483       0.42358670      -1.45077333       0.15462135      -0.32187516       0.03288168       0.56481603       0.74241694      -0.35457535
9
Properties=species:S:1:pos:R:3:momenta:R:3:forces:R:3 R1=H R2=H R3=CH3 R4=CH3 leaving_group=Cl nucleophile=Cl rxn=sn2 config=rcc label=H_H_CH3_CH3_Cl_Cl_sn2_rcc conformation=0 reactant_id=H_H_CH3_CH3_Cl_none_-_r product_id=H_H_CH3_CH3_none_Cl_sn2_pc mp2_author_energy=-29302.391748605172 mp2_my_energy=0 hash=59123 address=T id=71 energy=-17370.59805415858 pbc="F F F"
C        7.41585292      -0.54979052      -0.18615152       0.46627942      -0.70258724       0.20673132       0.54546475      -0.46160288      -1.47534850
C        7.91500069      -0.07175475      -1.56506244       0.65389822      -0.41056375      -0.14520875      -0.91539754       0.59368667       0.82250874
H        7.16520932       0.63970624      -1.98878042       0.24434570       0.28711055       0.06186113       0.69206612      -0.69589744       0.14672064
F        9.07034474      -2.00968848       0.38001800       0.46752285      -0.13095046       0.12362175      -0.59544859       0.67907982      -0.34319082
Cl       4.76251992       0.72094786      -0.41337027       1.21713775       0.91450080       0.09335986       0.39880868      -0.09006219       0.02737278
H        8.25401519      -1.20525712       0.16622235       0.11883607       0.07144555      -0.42171550       0.08187096      -0.14493823       0.50394948
H        6.52335093      -1.14315724      -0.34503385       0.31482964      -0.28083681      -0.07828756      -0.00220211       0.12837880       0.37400789
H        7.98630068      -0.99387424      -2.13583893      -0.22664708      -0.02703537      -0.22027434      -0.05448800      -0.00535155      -0.20441558
H        8.89821027       0.40771349      -1.53272032       0.04709163       0.15174219       0.17122197      -0.15067427      -0.00329299       0.14839537
9
Properties=species:S:1:pos:R:3:momenta:R:3:forces:R:3 R1=H R2=H R3=CH3 R4=CH3 leaving_group=Cl nucleophile=Cl rxn=sn2 config=rcc label=H_H_CH3_CH3_Cl_Cl_sn2_rcc conformation=0 reactant_id=H_H_CH3_CH3_Cl_none_-_r product_id=H_H_CH3_CH3_none_Cl_sn2_pc mp2_author_energy=-29302.391748605172 mp2_my_energy=0 hash=59123 address=T id=71 energy=-17370.612310050554 pbc="F F F"
C        8.35410004      -0.77003765      -0.30297471       1.30927186      -0.29604133      -0.55883902       0.98254024      -0.17168291       0.87485752
C        9.12929701      -0.04446879      -1.32260918       1.03686724      -0.28973842       0.80050041      -1.60649500       1.50674820       0.26041540
H        8.68269674       0.95843830      -1.42905268      -0.12979814      -0.00836949      -0.32518601       0.37816006      -0.18335212       0.04665213
F        9.54411297      -2.57533539      -0.00769464      -0.36533277       0.37285644      -0.25057094       0.16584509       0.13630515       0.24996742
Cl       5.94434316       0.99180526      -0.41929498       1.54635495       0.26397607       0.41629062      -0.24729067       0.41463488      -0.01673324
H        9.03006670      -1.53339178       0.19166122       0.03907485      -0.10858800      -0.30613071      -0.67476909      -0.49431203      -0.45724822
H        7.31124752      -0.94578376      -0.43186472       0.10254278       0.14233420      -0.03486267      -0.13380757      -0.51078943      -0.18105638
H        9.02938050      -0.50207413      -2.27224348       0.15663466       0.00524019       0.08235493       0.03695524      -0.85594375      -0.95369346
H       10.14215449       0.02453650      -1.02529885       0.15486238      -0.22991041      -0.06681581       1.09886171       0.15839202       0.17683883
9
Properties=species:S:1:pos:R:3:momenta:R:3:forces:R:3 R1=H R2=H R3=CH3 R4=CH3 leaving_group=Cl nucleophile=Cl rxn=sn2 config=rcc label=H_H_CH3_CH3_Cl_Cl_sn2_rcc conformation=0 reactant_id=H_H_CH3_CH3_Cl_none_-_r product_id=H_H_CH3_CH3_none_Cl_sn2_pc mp2_author_energy=-29302.391748605172 mp2_my_energy=0 hash=59123 address=T id=71 energy=-17370.6079180749 pbc="F F F"
C        9.29506024      -1.02342064      -0.27115304       0.85543327      -0.80319934      -0.06027767       0.51748199      -0.28066423      -0.76502197
C       10.38317811      -0.17518784      -0.86936147       1.16620249       0.33115787      -0.12193196       1.26316671      -1.68966578      -1.36121176
H       10.11981907       0.80498506      -1.13013424       0.20103668       0.38447266       0.29342279      -0.93720977       1.61470251       0.45387836
F       10.03229717      -3.01374159      -0.55328188      -0.38149615      -0.01689622       0.08071704      -0.15101864       0.76211192      -0.02954320
Cl       7.20062263       1.28753945      -0.45307306       2.16794641       0.06692820       0.09800959      -0.17749673       0.37362202       0.06665600
H        9.50211763      -2.11498640      -0.33721414      -0.00959126       0.06335619      -0.23862264       0.25723331       0.50448923       0.35837228
H        8.39005207      -0.78256038      -0.81224853       0.09063101      -0.21216792      -0.24541281       0.04142569      -0.42659605       0.26824258
H       10.49818366      -0.59818453      -1.88850463      -0.01105540      -0.01667708       0.18273334      -0.04231835      -0.37733831       0.41411074
H       11.42186357      -0.15127497      -0.49486664       0.13823918       0.04066073      -0.25507429      -0.77126421      -0.48066131       0.59451697
9
Properties=species:S:1:pos:R:3:momenta:R:3:forces:R:3 R1=H R2=H R3=CH3 R4=CH3 leaving_group=Cl nucleophile=Cl rxn=sn2 config=rcc label=H_H_CH3_CH3_Cl_Cl_sn2_rcc conformation=0 reactant_id=H_H_CH3_CH3_Cl_none_-_r product_id=H_H_CH3_CH3_none_Cl_sn2_pc mp2_author_energy=-29302.391748605172 mp2_my_energy=0 hash=59123 address=T id=71 energy=-17370.774990167378 pbc="F F F"
C        9.92450744      -1.35936785      -0.49466642       0.45766602      -0.57522606      -0.00189909      -0.35296144       0.58834144      -0.06537346
C       11.22664919      -0.65901714      -0.54785265       2.03342483       0.01669247       0.40404032       2.10858221      -2.76422488      -0.18175322
H       11.11282970       0.32706120      -0.28550623      -0.05548944      -0.13331184       0.01030288      -0.29269475       2.61657521       0.18790118
F       10.67247801      -3.20023531      -0.93431012      -0.42545040       0.41051046      -0.47999135      -0.01483540      -0.43012303      -0.09515472
Cl       8.22883300       1.64722061      -0.43802130       1.11835205       0.11649299      -0.22149156       0.34762675      -0.56392654       0.00596882
H       10.00800568      -2.47042312      -0.55569246      -0.01493205       0.09752753      -0.05843379       0.16373080       0.63234562      -0.12880762
H        9.31631461      -0.87732184      -1.25081301      -0.19840346      -0.01492207       0.09864835      -0.34554948      -0.47241144       0.17934480
H       11.56858285      -0.82554003      -1.59182012      -0.13238036      -0.12962863      -0.08869281      -0.33923935       0.38142525       0.50853307
H       12.08381166      -1.05459371       0.08706977       0.12432992       0.09994315       0.15385595      -1.27465933       0.01199836      -0.41065885
9
Properties=species:S:1:pos:R:3:momenta:R:3:forces:R:3 R1=H R2=H R3=CH3 R4=CH3 leaving_group=Cl nucleophile=Cl rxn=sn2 config=rcc label=H_H_CH3_CH3_Cl_Cl_sn2_rcc conformation=0 reactant_id=H_H_CH3_CH3_Cl_none_-_r product_id=H_H_CH3_CH3_none_Cl_sn2_pc mp2_author_energy=-29302.391748605172 mp2_my_energy=0 hash=59123 address=T id=71 energy=-17370.78983893161 pbc="F F F"
C       10.53838583      -1.33735029      -0.84429896       0.41503998      -0.13223082       0.39296302       0.66799114      -0.27502759      -0.14441284
C       11.82579327      -0.82875951      -0.28392066       0.91925518      -0.54154760       0.33452861      -0.59100224      -1.88827433       0.39108089
H       11.88775100       0.22956622      -0.30512368       0.13816627      -0.21357150      -0.08139582       0.24269873       0.94585140      -0.10833024
F       11.21905600      -3.25632544      -1.24088605       0.35175362       0.16104103      -0.27012118      -0.56467105       1.26146260       0.22328114
Cl       9.59802501       1.65879671      -0.40097972       1.30661949       0.63241933      -0.07620015      -0.29332910       0.59255071       0.06593718
H       10.51631272      -2.41335189      -0.98415133      -0.04853486       0.00070837      -0.16042497       0.20890722      -0.76899653      -0.32224296
H       10.04660476      -0.68084540      -1.52796481       0.14154651       0.06949279      -0.09416445      -0.06229976      -0.34873337      -0.35460155
H       12.62796508      -1.36351060      -0.81472578       0.24191442      -0.08837985      -0.31453855      -0.31604645       0.25294229       0.10912383
H       11.75710206      -1.17503116       0.75233158      -0.29354520      -0.01005985       0.06894444       0.70775152       0.22822481       0.14016454
9
Properties=species:S:1:pos:R:3:momenta:R:3:forces:R:3 R1=H R2=H R3=CH3 R4=CH3 leaving_group=Cl nucleophile=Cl rxn=sn2 config=rcc label=H_H_CH3_CH3_Cl_Cl_sn2_rcc conformation=0 reactant_id=H_H_CH3_CH3_Cl_none_-_r product_id=H_H_CH3_CH3_none_Cl_sn2_pc mp2_author_energy=-29302.391748605172 mp2_my_energy=0 hash=59123 address=T id=71 energy=-17370.940882947933 pbc="F F F"
C       11.32411562      -1.36411963      -1.00859752       0.71538910      -0.00209772      -0.10956639       0.42082402       0.50932887       0.93025193
C       12.55543773      -1.23172820      -0.15601228      -0.07677586       0.63794182      -0.41539637      -1.07867100      -0.68187428      -1.19024170
H       12.55587392      -0.34203926       0.42164037       0.05274106      -0.38331015       0.19968801       0.26948459       0.86381740       0.35751034
F       11.68595984      -3.31866562      -1.49348037       0.08126951      -0.70751049      -0.24248868      -0.10059267       0.16768906      -0.09228429
Cl      10.77896501       1.79470877      -0.37712829       1.68249962      -0.04841547       0.27111626      -0.11396769       0.23276707      -0.00645734
H       11.19985580      -2.37471234      -1.38336177      -0.02046642      -0.12336148       0.07151909       0.07154411      -0.54480082      -0.23445277
H       11.25738127      -0.57335289      -1.71578361       0.04745246       0.03455899      -0.18344259      -0.17038853       0.07139501      -0.51069429
H       13.34744150      -1.29751979      -0.88907046       0.09060458       0.32999551       0.14279416       0.47388125       0.23874581      -0.02212242
H       12.57957606      -2.09074717       0.46267853      -0.13433052       0.16832291       0.11172829       0.22788592      -0.85706812       0.76849055
9
Properties=species:S:1:pos:R:3:momenta:R:3:forces:R:3 R1=H R2=H R3=CH3 R4=CH3 leaving_group=Cl nucleophile=Cl rxn=sn2 config=rcc label=H_H_CH3_CH3_Cl_Cl_sn2_rcc conformation=0 reactant_id=H_H_CH3_CH3_Cl_none_-_r product_id=H_H_CH3_CH3_none_Cl_sn2_pc mp2_author_energy=-29302.391748605172 mp2_my_energy=0 hash=59123 address=T id=71 energy=-17370.711638594636 pbc="F F F"
C       12.31797524      -1.48365451      -1.03987113       0.01290056      -0.42429311       0.19889626      -0.08444563       0.04057541       0.68847651
C       13.30025569      -1.74629711       0.05801049      -0.34293454       0.01793528      -0.72486508       0.41581005      -1.05464768       1.64109128
H       13.21253144      -0.99849154       0.90718747       0.18937506      -0.01604769      -0.16339480       0.28293112      -0.60307877      -1.22843978
F       12.14107727      -3.33372298      -1.91418962       1.04870817      -0.15244556       0.17364372       0.16283081      -0.37608905      -0.16177438
Cl      12.09997916       1.98268467      -0.38826817       2.21558745       0.51717564       0.46242751       0.07993940      -0.93558066      -0.16467136
H       12.03217887      -2.37439671      -1.63265548       0.02073823      -0.05288173      -0.09341450       0.17417442       0.86408146       0.40952708
H       12.41084045      -0.55038502      -1.52648652       0.02932696      -0.01265945      -0.25435757       0.08834005       0.46235718      -0.50053080
H       14.35940567      -1.84789806      -0.31338051       0.01708671       0.08968687       0.17715049      -1.11431286       0.47779418       0.05727582
H       13.09815891      -2.75561066       0.55552527      -0.03802482      -0.08784948       0.02473379      -0.00526736       1.12458792      -0.74095437
9
Properties=species:S:1:pos:R:3:momenta:R:3:forces:R:3 R1=H R2=H R3=CH3 R4=CH3 leaving_group=Cl nucleophile=Cl rxn=sn2 config=rcc label=H_H_CH3_CH3_Cl_Cl_sn2_rcc conformation=0 reactant_id=H_H_CH3_CH3_Cl_none_-_r product_id=H_H_CH3_CH3_none_Cl_sn2_pc mp2_author_energy=-29302.391748605172 mp2_my_energy=0 hash=59123 address=T id=71 energy=-17370.754301228073 pbc="F F F"
C       13.05459600      -1.36462048      -0.99261779      -0.23739099       0.24825390       0.41404038      -0.42206875      -0.12901452      -0.21894250
C       13.75215948      -1.87229835       0.20915785       0.03583872       0.04298610       0.25945681       0.14390342       0.44720929       0.15317752
H       14.42842112      -1.08182041       0.56987094       0.07873637      -0.16404559      -0.09750085      -0.72592541      -0.07799660       0.43693884
F       12.72762548      -2.93814602      -2.20790163       0.58785415      -0.57897827      -0.48459388      -0.11652439      -1.52991457      -0.87454009
Cl      13.39893862       1.70003330      -0.43851849       2.13302030       0.16302674       0.15286292       0.11969833       0.83899968       0.25079118
H       12.55779245      -2.10025230      -1.66695847       0.23558346       0.08128927      -0.13977271       0.35068202       0.67748076       1.07133495
H       13.64797211      -0.66495571      -1.52423255       0.06223636       0.02694518      -0.14954096       0.25756594       0.47299543      -0.51779104
H       14.40288383      -2.67194085      -0.05219946       0.16678872       0.02397664      -0.32335892       0.48696334      -0.96157373      -0.81266586
H       13.06475640      -2.28466631       0.93463509      -0.03626189       0.04003154       0.17720991      -0.09429449       0.26181425       0.51169700
9
Properties=species:S:1:pos:R:3:momenta:R:3:forces:R:3 R1=H R2=H R3=CH3 R4=CH3 leaving_group=Cl nucleophile=Cl rxn=sn2 config=rcc label=H_H_CH3_CH3_Cl_Cl_sn2_rcc conformation=0 reactant_id=H_H_CH3_CH3_Cl_none_-_r product_id=H_H_CH3_CH3_none_Cl_sn2_pc mp2_author_energy=-29302.391748605172 mp2_my_energy=0 hash=59123 address=T id=71 energy=-17370.87177380155 pbc="F F F"
C       13.99598415      -1.40892812      -1.20678083       0.61713229      -0.17455265       0.58636096      -0.25559747      -1.34279726      -1.60516124
C       14.17097015      -2.03545255       0.14455226       0.01263734      -0.87667584      -0.22193837       0.07806376       1.03649739      -0.12414781
H       14.76238726      -1.27595575       0.71250245      -0.39069695       0.00725398       0.11052898      -0.61267429      -0.83432249       0.09186225
F       13.25866911      -2.93024036      -2.39272599       0.50276615       1.33078375      -0.29133276       0.15500306      -0.10530404       0.18602600
Cl      14.74926030       1.70786586      -0.36675645       1.92358329      -0.64749667      -0.77979185       0.03466921      -0.15839026       0.04206177
H       13.52382343      -2.07716263      -1.95993186      -0.02942919      -0.07640431       0.01434900      -0.04291603       0.81307131       1.13238595
H       14.93495318      -1.13755252      -1.65618834       0.20579756      -0.07799222       0.29135029       0.22658788       0.44113924       0.20910039
H       14.72522639      -2.96502310       0.00290780       0.39683116       0.17658482      -0.06077139       0.08047662       0.00800701      -0.09232167
H       13.19237813      -2.25489147       0.59495292       0.26312382       0.20368436       0.13001757       0.33638727       0.14209910       0.16019435
9
Properties=species:S:1:pos:R:3:momenta:R:3:forces:R:3 R1=H R2=H R3=CH3 R4=CH3 leaving_group=Cl nucleophile=Cl rxn=sn2 config=rcc label=H_H_CH3_CH3_Cl_Cl_sn2_rcc conformation=0 reactant_id=H_H_CH3_CH3_Cl_none_-_r product_id=H_H_CH3_CH3_none_Cl_sn2_pc mp2_author_energy=-29302.391748605172 mp2_my_energy=0 hash=59123 address=T id=71 energy=-17370.806352647982 pbc="F F F"
C       14.65779021      -1.26877614      -1.60194237       0.96365158       0.28016334       0.70661294      -1.04603197      -0.08667157       1.17854184
C       14.64503090      -1.86866274      -0.23273677      -0.22748437      -0.25287151      -0.14120080       1.27595998       0.05024816       0.60394002
H       14.94960443      -1.17093129       0.59870099       0.16922472      -0.37789701       0.17679192      -0.21002467      -0.80398901      -1.10982411
F       13.72824169      -2.95728343      -2.30132239       0.25760851      -0.01052237      -0.85707446      -0.00013842      -0.10783346      -0.39621572
Cl      15.94340580       1.52495015      -0.22872099       1.76002884       0.35705544      -0.42528052      -0.04726562      -0.17404714      -0.14116291
H       14.11522617      -1.98083039      -2.26471045      -0.24159721      -0.07683290       0.00060921       0.66645637       0.53111660      -0.10367931
H       15.62589387      -0.89035881      -1.82755028       0.18935898      -0.00901406       0.09020428       0.20695325      -0.15322391      -0.69080866