9
Properties=species:S:1:pos:R:3:momenta:R:3:forces:R:3 R1=H R2=H R3=CH3 R4=CH3 leaving_group=Cl nucleophile=Cl rxn=sn2 config=rcc label=H_H_CH3_CH3_Cl_Cl_sn2_rcc conformation=0 reactant_id=H_H_CH3_CH3_Cl_none_-_r product_id=H_H_CH3_CH3_none_Cl_sn2_pc mp2_author_energy=-29302.391748605172 mp2_my_energy=0 hash=59123 address=T id=71 energy=-17370.412368016237 pbc="F F F"
C        0.12542541       0.11270554      -0.00029240       0.29720985      -0.58819028       0.53745749      -0.09214561       1.11788396      -0.00082481
C        1.62503867       0.00847468       0.00156754      -0.02600036      -0.59696754      -0.18154025      -0.06338950      -0.85342640       0.00215309
H        1.99473018      -0.50605055       0.89354482      -0.03940429      -0.00396286      -0.19721402       0.00320508       0.00300841       0.00517082
F        0.89788639       2.64149152      -0.00442372      -0.91447886      -0.02542987      -0.51929554      -0.23271315      -0.10403772      -0.00076135
Cl      -0.69504884      -1.53494042       0.00509220       0.02864037      -0.29430361      -1.79835711       0.38207948      -0.16174994      -0.00050876
H       -0.22306082       0.64592326      -0.87549887       0.14069492       0.08492025      -0.01469240      -0.00302890      -0.00293595      -0.00472561
H       -0.22431889       0.65275656       0.87018381      -0.19384477       0.02604456      -0.13539243      -0.00396382      -0.00350204       0.00469305
H        1.88822962       1.08069343      -0.00059746      -0.07399088       0.20543587       0.19708530       0.00778691       0.00253743      -0.00033365
H        1.99700981      -0.51031959      -0.88698835       0.20435056      -0.27464896      -0.05656500       0.00216950       0.00222225      -0.00486279
9
Properties=species:S:1:pos:R:3:momenta:R:3:forces:R:3 R1=H R2=H R3=CH3 R4=CH3 leaving_group=Cl nucleophile=Cl rxn=sn2 config=rcc label=H_H_CH3_CH3_Cl_Cl_sn2_rcc conformation=0 reactant_id=H_H_CH3_CH3_Cl_none_-_r product_id=H_H_CH3_CH3_none_Cl_sn2_pc mp2_author_energy=-29302.391748605172 mp2_my_energy=0 hash=59123 address=T id=71 energy=-17370.26821698223 pbc="F F F"
C        0.01907915      -0.40007681      -0.78276432      -0.25876734      -0.47483445      -0.44358434      -2.29753737      -0.62736739       0.43936699
C        1.19149581      -0.62137727       0.07398024      -0.24440566       0.12575596       0.02187347       0.66736819       0.49922800       0.28602924
H        0.95770326      -1.18284134       0.98351493      -0.00889057      -0.11252084       0.16589962      -0.15307045       0.13763234      -0.15366204
F        0.00145140       2.22647079      -0.52104345      -0.41414417       0.21447938      -0.14484444       0.19043805      -0.34651035       0.10904378
Cl      -0.48449080      -2.11308607      -1.33265272       0.31332275      -1.19271379      -1.84072839      -0.06697046       0.06825990       0.05755204
H        0.09813813       0.18173857      -1.66223277       0.08518135      -0.09840546      -0.10215591       0.72403101       0.52448896      -0.66284983
H       -0.81516987       0.05718028      -0.23766129       0.04852914      -0.00412235       0.02088768       0.29248211      -0.28217412      -0.14065643
H        1.52632340       0.37879721       0.30778110      -0.06586803      -0.26633498      -0.12882568       0.18317774       0.19660008       0.22155600
H        1.94894339      -1.16879680      -0.46369981      -0.09744823       0.17457482       0.03609397       0.46008119      -0.17015740      -0.15637975
9
Properties=species:S:1:pos:R:3:momenta:R:3:forces:R:3 R1=H R2=H R3=CH3 R4=CH3 leaving_group=Cl nucleophile=Cl rxn=sn2 config=rcc label=H_H_CH3_CH3_Cl_Cl_sn2_rcc conformation=0 reactant_id=H_H_CH3_CH3_Cl_none_-_r product_id=H_H_CH3_CH3_none_Cl_sn2_pc mp2_author_energy=-29302.391748605172 mp2_my_energy=0 hash=59123 address=T id=71 energy=-17370.285226899705 pbc="F F F"
C       -0.31976374      -0.97921837      -1.86199596      -0.33029685       0.66330461      -0.10232005       0.72621950      -0.50719478      -0.05744285
C        0.04395142      -1.10446271      -0.41477745      -0.66954401      -0.91233500      -0.35598531       0.53575758      -0.03581973       0.31749176
H       -0.60669792      -1.80336027       0.07768067       0.02407859      -0.11434280      -0.05485423      -0.07630207      -0.74385169       0.34053582
F       -0.65468507       1.43136671      -0.87590984      -0.49063325      -0.45856054      -0.66739020      -0.24542217       0.79721619      -0.09624855
Cl      -0.05242969      -2.65667866      -2.57870086       0.91470278      -0.64542191      -1.52044468       0.01481143      -0.13518429      -0.36985385
H        0.32435535      -0.27321519      -2.37287337       0.07368506      -0.23537252      -0.04398076      -0.07538651      -0.04987800      -0.06528746
H       -1.35658447      -0.72037163      -2.04362059      -0.22357240      -0.10140609      -0.15694283       0.08636100       0.03213028       0.24207818
H       -0.23119359      -0.10945086      -0.09347130      -0.16193557       0.01201947       0.18184542      -0.02647461       0.86176940       0.33543195
H        1.12696467      -1.26191861      -0.16061497       0.09387306      -0.16540703      -0.17332680      -0.93956414      -0.21918739      -0.64670502
9
Properties=species:S:1:pos:R:3:momenta:R:3:forces:R:3 R1=H R2=H R3=CH3 R4=CH3 leaving_group=Cl nucleophile=Cl rxn=sn2 config=rcc label=H_H_CH3_CH3_Cl_Cl_sn2_rcc conformation=0 reactant_id=H_H_CH3_CH3_Cl_none_-_r product_id=H_H_CH3_CH3_none_Cl_sn2_pc mp2_author_energy=-29302.391748605172 mp2_my_energy=0 hash=59123 address=T id=71 energy=-17370.308954899203 pbc="F F F"
C       -0.45782269      -1.53418972      -2.43812312      -0.41252234      -0.40309556      -1.07294218       1.22114296      -0.12966887       0.76281920
C       -0.91347085      -2.15295033      -1.14987547      -0.60985608      -0.28970943      -0.24236539      -0.83702339      -0.16760024      -0.00405222
H       -1.67908078      -2.93307649      -1.32334391      -0.01922399       0.11219154      -0.25152435       0.12393598       0.48811324       0.08948232
F       -1.35823329       0.75897681      -1.51701400      -0.35259964      -1.75997265      -0.48104021      -0.21098839       0.25991221       0.32740058
Cl       0.30820561      -2.84735163      -3.51605972       0.41276180       0.05438119      -0.77899296      -0.13592878      -0.24796042       0.18710767
H        0.32678081      -0.79532123      -2.21613601      -0.01644601       0.00001231       0.06107158      -0.67110573      -0.17017451      -0.47691707
H       -1.30751336      -1.13690056      -2.92228293       0.05391957       0.29472971      -0.12080370      -0.41699792       0.74612515      -0.78502693
H       -1.29705337      -1.30023538      -0.54504005       0.08702658      -0.06340241      -0.15040771       0.12596908      -0.42785565      -0.62363011
H       -0.10829609      -2.63524636      -0.64458974       0.06949475       0.05206360       0.07667757       0.80099620      -0.35089092       0.52281657
9
Properties=species:S:1:pos:R:3:momenta:R:3:forces:R:3 R1=H R2=H R3=CH3 R4=CH3 leaving_group=Cl nucleophile=Cl rxn=sn2 config=rcc label=H_H_CH3_CH3_Cl_Cl_sn2_rcc conformation=0 reactant_id=H_H_CH3_CH3_Cl_none_-_r product_id=H_H_CH3_CH3_none_Cl_sn2_pc mp2_author_energy=-29302.391748605172 mp2_my_energy=0 hash=59123 address=T id=71 energy=-17370.196274325215 pbc="F F F"
C       -0.61091691      -2.01498939      -3.48110539      -0.07445532      -0.35522176      -1.21791221      -1.01088302      -0.99141605       0.08382671
C       -1.76797403      -2.94918096      -3.11470714      -0.60572521      -0.26040983      -1.10186360       1.45800848      -0.46370498      -1.07223773
H       -2.19920665      -3.43505292      -4.00366727      -0.03431828      -0.36659111      -0.17272641       0.31268588      -0.01107791       0.27254687
F       -2.32318826      -0.61041019      -2.03407505      -1.42295660      -0.55969181       0.42514986       0.00623392       0.65751525       0.12253124
Cl       0.62268775      -3.18927753      -4.35658728       0.84796553      -0.92630663      -1.21473279       0.26902305       0.33253649      -0.12990979
H       -0.11629521      -1.56779910      -2.62572132       0.15289521       0.03333902       0.04732987      -0.04875299      -0.10730146      -0.08104510
H       -0.93366391      -1.26234304      -4.19643349       0.17586427      -0.05044494       0.06346000       0.28225693      -0.04502778       0.01369643
H       -2.42274053      -2.22983836      -2.69567192      -0.11943794      -0.00139663      -0.09118802      -1.22653724       0.88369429       0.86208268
H       -1.43946263      -3.66628116      -2.36632272       0.12310003       0.05250013      -0.33552571      -0.04203501      -0.25521786      -0.07149131
9
Properties=species:S:1:pos:R:3:momenta:R:3:forces:R:3 R1=H R2=H R3=CH3 R4=CH3 leaving_group=Cl nucleophile=Cl rxn=sn2 config=rcc label=H_H_CH3_CH3_Cl_Cl_sn2_rcc conformation=0 reactant_id=H_H_CH3_CH3_Cl_none_-_r product_id=H_H_CH3_CH3_none_Cl_sn2_pc mp2_author_energy=-29302.391748605172 mp2_my_energy=0 hash=59123 address=T id=71 energy=-17370.11445226154 pbc="F F F"
C       -1.05067200      -2.88606375      -4.33082763      -1.05361694      -0.70154187      -0.19136433       2.15859022       2.09586781      -0.84717650
C       -2.08377854      -3.43899797      -5.21405670      -0.34961955      -0.19965705      -1.33602109      -1.54606348      -1.02593809       0.64672936
H       -2.02419608      -3.11012663      -6.23515304       0.04166331       0.17755366      -0.18661042       0.06080163       0.35120467      -0.49756833
F       -3.01421506      -2.09992945      -2.79749799      -1.01455559      -0.87916653      -0.52140236      -1.40969995       0.43845535       0.88910338
Cl       0.70113265      -3.38282064      -5.01626785       1.32127519      -0.29713622      -1.60231128      -0.11409279      -0.36837213      -0.03967875
H       -1.21333832      -3.11880994      -3.29884063       0.10524443      -0.05539437       0.18173459       0.21389032      -0.42899649       0.43573435
H       -0.96946175      -1.76542870      -4.36331220       0.11960659      -0.12652415       0.20006884      -0.38106360      -1.32746054      -0.03217072
H       -3.02682548      -3.07166902      -4.68006044       0.00076090      -0.23658891      -0.05306912       1.08941504      -0.33399518      -0.61525015
H       -2.05780792      -4.55171029      -5.21577379      -0.10761885      -0.06437122      -0.01306444      -0.07177738       0.59923461       0.06027735
9
Properties=species:S:1:pos:R:3:momenta:R:3:forces:R:3 R1=H R2=H R3=CH3 R4=CH3 leaving_group=Cl nucleophile=Cl rxn=sn2 config=rcc label=H_H_CH3_CH3_Cl_Cl_sn2_rcc conformation=0 reactant_id=H_H_CH3_CH3_Cl_none_-_r product_id=H_H_CH3_CH3_none_Cl_sn2_pc mp2_author_energy=-29302.391748605172 mp2_my_energy=0 hash=59123 address=T id=71 energy=-17370.032719242456 pbc="F F F"
C       -1.26601451      -3.76534911      -5.10135369       0.87465056      -1.22513234      -0.49832022      -1.40405789       0.61111772       0.39187049
C       -2.08776770      -3.38385290      -6.31635583      -0.30407945      -0.25555546       0.00991880       0.46530123      -0.12121666       1.04633027
H       -1.86674364      -2.36875089      -6.56949441      -0.03228631      -0.21751117       0.07611874       0.32042694       0.64097562      -0.65116706
F       -3.79754176      -3.92511727      -4.23210859      -0.40725548      -0.85594095      -1.61141528       0.78490319      -0.01408519       0.01245655
Cl       0.58356538      -3.64724846      -5.81858234      -0.79519242       0.19050547      -1.20307394       0.35314776      -0.04334048       0.27220930
H       -1.40854876      -4.76696698      -4.77614615      -0.12330405       0.06864039      -0.01839976       0.03911282      -0.90364108      -0.05953240
H       -1.34819382      -3.15399156      -4.17199699      -0.16564256      -0.16797766       0.17798348       0.10833439      -0.01591098      -1.21074630
H       -3.07671861      -3.42330197      -5.88850290      -0.02841490       0.05780239      -0.03541499      -0.92971790      -0.23424760       0.24337126
H       -1.97832472      -4.08258566      -7.14262520       0.11642508       0.20486074      -0.14965775       0.26254945       0.08034864      -0.04479213
9
Properties=species:S:1:pos:R:3:momenta:R:3:forces:R:3 R1=H R2=H R3=CH3 R4=CH3 leaving_group=Cl nucleophile=Cl rxn=sn2 config=rcc label=H_H_CH3_CH3_Cl_Cl_sn2_rcc conformation=0 reactant_id=H_H_CH3_CH3_Cl_none_-_r product_id=H_H_CH3_CH3_none_Cl_sn2_pc mp2_author_energy=-29302.391748605172 mp2_my_energy=0 hash=59123 address=T id=71 energy=-17369.92505803066 pbc="F F F"
C       -1.58065756      -4.61905231      -5.97799604       0.05687015      -0.21479862      -1.41169469       0.63987008      -0.58480984      -0.80559264
C       -2.33434873      -3.60997546      -6.76301947      -0.40976959       0.27948256       0.33646537       0.95093742       1.60359403      -0.24991391
H       -2.17894099      -2.57393506      -6.33498121      -0.07021937       0.06025477       0.00865012      -0.36491373      -1.16224794      -0.16422580
F       -4.13531999      -5.30976566      -5.73849067      -0.12431094      -1.12834886      -0.98756424      -0.61764140      -0.38616239       0.20073937
Cl       0.45022634      -3.80344085      -6.43250575      -0.16482751      -0.39334199      -0.52155651       0.22884007      -0.05887570       0.11505857
H       -1.41659474      -5.63391483      -6.34856742       0.08281209      -0.18701843       0.07554629      -0.29054572       0.58210847      -0.18402561
H       -1.51621334      -4.58159525      -4.92848675      -0.06785207      -0.30050585      -0.15152390      -0.12529565       0.31679707       0.95667007
H       -3.37996873      -3.92256597      -6.77407101      -0.15257385      -0.08522130      -0.29560494      -0.18308717      -0.11236788       0.21479972
H       -1.89047456      -3.54396596      -7.76063307       0.01709996      -0.14858632      -0.18344286      -0.23816391      -0.19803581      -0.08350977
9
Properties=species:S:1:pos:R:3:momenta:R:3:forces:R:3 R1=H R2=H R3=CH3 R4=CH3 leaving_group=Cl nucleophile=Cl rxn=sn2 config=rcc label=H_H_CH3_CH3_Cl_Cl_sn2_rcc conformation=0 reactant_id=H_H_CH3_CH3_Cl_none_-_r product_id=H_H_CH3_CH3_none_Cl_sn2_pc mp2_author_energy=-29302.391748605172 mp2_my_energy=0 hash=59123 address=T id=71 energy=-17369.938967087037 pbc="F F F"
C       -1.92813343      -5.59478554      -7.11346930       0.58492150      -0.32761577      -0.74446145      -0.58300068       0.67975678      -0.32068360
C       -2.83597172      -4.38497396      -7.07107447      -0.54808339      -0.46295058      -0.78983005       0.39748474      -0.94744977      -0.20719691
H       -2.75570885      -3.87936178      -6.11312925      -0.19436379      -0.22963836       0.23373201      -0.22657130       0.04894601       0.07096977
F       -4.34964461      -6.62102287      -7.66272490      -0.43269742      -0.41185432      -1.31013808       0.20674333      -0.02595344       0.05650091
Cl       0.30332253      -3.92068181      -7.06639852      -0.53952553      -0.11076732      -0.83141626      -0.60912880      -0.44540115       0.06517342
H       -1.64933646      -5.92554415      -8.12813946      -0.14165118      -0.08630486       0.18682689       0.14144224      -0.04102397       0.78197227
H       -1.41879706      -5.84781976      -6.19501121       0.26106990      -0.20540273      -0.19075419       0.36606567      -0.18887292      -0.37190084
H       -3.84223108      -4.75587941      -7.34032030       0.12310536      -0.13883689       0.02634772       0.11799013       0.08374791       0.38868078
H       -2.47120554      -3.76057502      -7.85212662       0.03039139      -0.20591294       0.19850915       0.18897467       0.83625055      -0.46351582
9
Properties=species:S:1:pos:R:3:momenta:R:3:forces:R:3 R1=H R2=H R3=CH3 R4=CH3 leaving_group=Cl nucleophile=Cl rxn=sn2 config=rcc label=H_H_CH3_CH3_Cl_Cl_sn2_rcc conformation=0 reactant_id=H_H_CH3_CH3_Cl_none_-_r product_id=H_H_CH3_CH3_none_Cl_sn2_pc mp2_author_energy=-29302.391748605172 mp2_my_energy=0 hash=59123 address=T id=71 energy=-17370.02585045217 pbc="F F F"
C       -2.04026985      -6.12900603      -8.54614152       0.09468549       0.05939110       0.18588030      -0.43286363      -0.31353135       0.55241427
C       -2.89049248      -5.71241102      -7.40157470       0.09022771      -0.96054872      -0.18793119      -1.11386914      -2.02067153      -0.38273770
H       -2.61130800      -6.17747972      -6.47609911      -0.17800822       0.02696568      -0.17648209       0.40320675      -0.49585151       0.53176388
F       -4.33210476      -7.38697001      -9.25028412      -0.09344159      -0.44315846      -1.55064340       0.92566003       0.50884284       0.38850058
Cl      -0.19254412      -4.15952153      -7.60715186      -0.97517244      -0.61005975      -1.22278448      -0.13317637      -0.23817805      -0.16022106
H       -2.30200549      -5.58186831      -9.42814910      -0.01728903      -0.18988534       0.03756262       0.30842889       0.07477949      -0.55557256
H       -0.99921594      -6.31633868      -8.30986973       0.14582018       0.24645070      -0.35522747      -0.22781217       0.00604635      -0.41476261
H       -3.93044702      -6.06974320      -7.62565311       0.12554667      -0.05871756      -0.02158509       0.63415449       0.70711877      -0.04929549
H       -2.73461643      -4.68932479      -7.27850172      -0.04652382      -0.24290989       0.08009462      -0.36372887       1.77144499       0.08991069
9
Properties=species:S:1:pos:R:3:momenta:R:3:forces:R:3 R1=H R2=H R3=CH3 R4=CH3 leaving_group=Cl nucleophile=Cl rxn=sn2 config=rcc label=H_H_CH3_CH3_Cl_Cl_sn2_rcc conformation=0 reactant_id=H_H_CH3_CH3_Cl_none_-_r product_id=H_H_CH3_CH3_none_Cl_sn2_pc mp2_author_energy=-29302.391748605172 mp2_my_energy=0 hash=59123 address=T id=71 energy=-17370.069391611498 pbc="F F F"
C       -2.51564003      -6.19642509      -9.53291139      -0.89532586      -0.44607413      -0.72231082       0.87054489       1.50582620       1.33756004
C       -2.66341065      -7.07253460      -8.34235316       0.18154275      -0.98790036      -0.07622503       1.49039861       0.51117314       1.54190652
H       -1.67215337      -7.43469692      -8.07634192      -0.00435358       0.26455382      -0.35156988       0.30786674       0.43326733       0.31724425
F       -4.16778731      -8.01717849     -10.54433585       0.79707033       0.16254714      -1.40724382      -0.99515642      -0.97759412      -0.66799195
Cl      -0.71333908      -4.49233857      -8.06545850      -0.81816032      -0.73403218      -0.99240579      -0.28208465      -0.31141642      -0.20120817
H       -3.30798247      -6.38404838     -10.23885981      -0.16010211      -0.50916004       0.03215501      -0.24096350      -0.10363812      -0.24905470
H       -1.54145349      -6.33424384      -9.94726947      -0.06537223       0.08015125      -0.16469211       0.36620038       0.18656014      -0.31197844
H       -3.07379210      -7.94634715      -8.77289518       0.02066641      -0.10596802       0.03011837      -1.52886132      -0.99263384      -0.32189631
H       -3.09983593      -6.67395284      -7.38467452      -0.00492292      -0.13771188       0.08465686       0.01205527      -0.25154430      -1.44458124
9
Properties=species:S:1:pos:R:3:momenta:R:3:forces:R:3 R1=H R2=H R3=CH3 R4=CH3 leaving_group=Cl nucleophile=Cl rxn=sn2 config=rcc label=H_H_CH3_CH3_Cl_Cl_sn2_rcc conformation=0 reactant_id=H_H_CH3_CH3_Cl_none_-_r product_id=H_H_CH3_CH3_none_Cl_sn2_pc mp2_author_energy=-29302.391748605172 mp2_my_energy=0 hash=59123 address=T id=71 energy=-17370.100930180757 pbc="F F F"
C       -2.74257172      -6.87356426     -10.34229034      -0.19769266      -0.32644731       0.35607166       0.61693731       0.17758267       0.15610687
C       -1.73388401      -7.96755388     -10.12700454       0.45399343       0.44252430      -0.00620881      -0.51174669      -0.42099813       1.06295281
H       -1.02635585      -7.71396684      -9.30114348      -0.01758683      -0.13181565       0.00642345      -0.14501478       0.12755419      -1.18680281
F       -4.25394842      -8.64468088     -11.71818419      -0.07054260      -0.36362710      -0.95703725       0.25020390       0.34798518       0.28990763
Cl      -1.52857593      -4.98478150      -8.50770061      -0.74279883      -0.78276444      -1.00164089      -0.00441128      -0.28336531      -0.06893865
H       -3.76454661      -7.16197382     -10.53515566      -0.00773438      -0.18567493      -0.12657545      -0.14077971      -0.16191980      -0.33684607
H       -2.37082612      -5.89039729     -10.56640656       0.02946065      -0.01443650       0.09677749      -0.23370678       0.04063685      -0.33433164
H       -1.29199286      -8.33335583     -11.08575537      -0.03024094      -0.07771288      -0.32892774      -0.16609635       0.45430308       0.86597697
H       -2.35422621      -8.75353793      -9.66643004      -0.00552424      -0.05726944      -0.25191883       0.33461438      -0.28177873      -0.44802511
9
Properties=species:S:1:pos:R:3:momenta:R:3:forces:R:3 R1=H R2=H R3=CH3 R4=CH3 leaving_group=Cl nucleophile=Cl rxn=sn2 config=rcc label=H_H_CH3_CH3_Cl_Cl_sn2_rcc conformation=0 reactant_id=H_H_CH3_CH3_Cl_none_-_r product_id=H_H_CH3_CH3_none_Cl_sn2_pc mp2_author_energy=-29302.391748605172 mp2_my_energy=0 hash=59123 address=T id=71 energy=-17370.16494970765 pbc="F F F"
C       -3.24652604      -7.30408194     -10.94487887       0.43698403      -0.34246922       0.06065708       1.21003293      -0.65496985       0.28360912
C       -1.89110262      -7.74922528     -11.43723385      -0.02778871       0.32519653      -0.74917774      -0.42900117       1.27667046      -0.45202535
H       -1.41773159      -6.96016630     -12.00351619      -0.16381126       0.01151258      -0.18377022      -0.02796680       0.25368546      -0.44884164
F       -3.76559205      -9.32018909     -12.63928521       0.16735213      -0.52069053      -0.99083812      -0.39202982      -0.40297114      -0.20723392
Cl      -1.98068095      -5.69494976      -8.90821354      -0.81371548      -0.73006879      -0.63248385      -0.02246533      -0.17386034      -0.21405948
H       -3.94970331      -8.10766928     -11.04831734      -0.05638749      -0.03189216       0.08478254      -0.61583422       0.06390888      -0.15173269
H       -3.48680436      -6.27723968     -10.76883744      -0.12615059       0.15344161       0.06952924      -0.15701352       0.12906478      -0.10874153
H       -2.03482055      -8.63974155     -12.02965786      -0.11100190      -0.08896888       0.18714935      -0.42527538      -0.19696631      -0.46990890
H       -1.20350723      -7.96745015     -10.68456406       0.13438196      -0.20072374       0.04836779       0.85955332      -0.29456193       1.76893439
9
Properties=species:S:1:pos:R:3:momenta:R:3:forces:R:3 R1=H R2=H R3=CH3 R4=CH3 leaving_group=Cl nucleophile=Cl rxn=sn2 config=rcc label=H_H_CH3_CH3_Cl_Cl_sn2_rcc conformation=0 reactant_id=H_H_CH3_CH3_Cl_none_-_r product_id=H_H_CH3_CH3_none_Cl_sn2_pc mp2_author_energy=-29302.391748605172 mp2_my_energy=0 hash=59123 address=T id=71 energy=-17370.12818278465 pbc="F F F"
C       -3.34666708      -8.25295590     -11.52875038      -0.53642179      -0.38971875       0.32214686       0.82239957       2.78684123       0.93411383
C       -2.37215227      -7.53355974     -12.46534263      -0.47262131      -0.44141545      -0.29217489      -0.42184250      -1.56377639       0.83366127
H       -2.82572747      -7.69282251     -13.43970527       0.05784925       0.03416190       0.09396480       0.48637104      -0.17728241      -0.13092823
F       -3.29759990      -9.79437178     -13.71571417       0.89145521      -0.22216698      -1.26360848      -0.22999120      -0.55570930      -0.66251979
Cl      -2.45996496      -6.41863781      -9.50026919      -0.42554465      -0.92286280      -1.33176023      -0.04542789      -0.09635916      -0.06231172
H       -3.85138223      -9.02085806     -12.01669247      -0.01314654      -0.19301200      -0.12046486      -0.38983052      -1.54418653      -0.92528010
H       -4.03068724      -7.52745466     -11.12291485      -0.17316873       0.22559346       0.18717613      -0.15525568      -0.13390626       0.30851079
H       -1.37168987      -7.93955884     -12.31132928       0.07377400       0.16932262      -0.34831686       0.08003019      -0.30103554      -0.60829342
H       -2.30489769      -6.52641356     -12.18501444      -0.10220990      -0.04038131       0.12132339      -0.14645301       1.58541435       0.31304737
9
Properties=species:S:1:pos:R:3:momenta:R:3:forces:R:3 R1=H R2=H R3=CH3 R4=CH3 leaving_group=Cl nucleophile=Cl rxn=sn2 config=rcc label=H_H_CH3_CH3_Cl_Cl_sn2_rcc conformation=0 reactant_id=H_H_CH3_CH3_Cl_none_-_r product_id=H_H_CH3_CH3_none_Cl_sn2_pc mp2_author_energy=-29302.391748605172 mp2_my_energy=0 hash=59123 address=T id=71 energy=-17370.19917301688 pbc="F F F"
C       -3.07967716      -8.83194947     -12.42313095      -0.07352612      -0.56894170      -0.63645613      -0.68702676       1.55651733       2.73399996
C       -3.30042815      -7.60862988     -13.23703576      -0.51934913      -0.79964334      -0.38804578       0.88238785      -0.05223337      -0.80931905
H       -2.71827123      -6.71434055     -12.95175740      -0.13376741       0.15158510      -0.17736390      -0.66640376      -0.42970101       0.28983323
F       -2.83849258     -10.19244988     -14.69174546       0.61305496      -0.07538299      -1.43775973       0.07199577      -0.55982171      -1.54338100
Cl      -2.89847664      -7.16767553     -10.13194136      -0.46915596      -0.75384683      -0.14841898       0.01492679       0.04386124       0.03944623
H       -3.10793771      -9.65873400     -13.09586006      -0.01021702       0.14705245       0.12764781       0.26123419      -1.03209185      -0.53771373
H       -3.77182834      -8.97894964     -11.58984462       0.05581397       0.45430931      -0.08752395       0.33257372       0.18226024      -0.20260940
H       -4.38817139      -7.46085500     -13.25922581      -0.13266219      -0.18457530      -0.30463319       0.26716205       0.28928750      -0.11302870
H       -2.91112780      -7.90374675     -14.23234313      -0.06479718      -0.23896613       0.29087078      -0.47684986       0.00192163       0.14277246
9
Properties=species:S:1:pos:R:3:momenta:R:3:forces:R:3 R1=H R2=H R3=CH3 R4=CH3 leaving_group=Cl nucleophile=Cl rxn=sn2 config=rcc label=H_H_CH3_CH3_Cl_Cl_sn2_rcc conformation=0 reactant_id=H_H_CH3_CH3_Cl_none_-_r product_id=H_H_CH3_CH3_none_Cl_sn2_pc mp2_author_energy=-29302.391748605172 mp2_my_energy=0 hash=59123 address=T id=71 energy=-17370.175539114887 pbc="F F F"
C       -2.56738529      -8.95458139     -13.28494486       0.63500790      -0.55199094      -0.90309534      -1.91790499       0.49124734      -0.31844734
C       -3.95178398      -8.56614222     -13.85338840      -0.36680614      -0.06734175      -0.98971513       0.77905749       0.10425975       0.60145974
H       -3.92303861      -7.55936268     -14.24913254      -0.33546532       0.06551691      -0.09628878       0.21665817       0.51025319       0.16296152
F       -2.50766474     -10.25938170     -15.65633778       0.06867799       0.13128894      -0.08248751       0.04491046       0.54448358       0.61579154
Cl      -3.48739579      -7.85920630     -10.77182657      -0.59812957      -0.95133242      -0.43689569       0.20065567      -0.12003929      -0.38916448
H       -1.99913120      -9.13142504     -14.15239446      -0.06381950       0.04960654       0.17277004       1.01381988      -0.46582324      -0.91916451
H       -2.47415783      -9.73489899     -12.55302513       0.05347498       0.12183130      -0.05171362      -0.37563834      -0.00434574       0.05011274
H       -4.75993890      -8.61795722     -13.14453825      -0.22798075      -0.26963406       0.00993302      -0.13948639      -0.19360082       0.31624810
H       -4.10075948      -9.16895221     -14.73595105       0.21782972      -0.09776850       0.05714704       0.17792804      -0.86643476      -0.11979731
9
Properties=species:S:1:pos:R:3:momenta:R:3:forces:R:3 R1=H R2=H R3=CH3 R4=CH3 leaving_group=Cl nucleophile=Cl rxn=sn2 config=rcc label=H_H_CH3_CH3_Cl_Cl_sn2_rcc conformation=0 reactant_id=H_H_CH3_CH3_Cl_none_-_r product_id=H_H_CH3_CH3_none_Cl_sn2_pc mp2_author_energy=-29302.391748605172 mp2_my_energy=0 hash=59123 address=T id=71 energy=-17370.26003463801 pbc="F F F"
C       -2.95567256      -9.41661963     -13.95085362      -0.13919241       0.44844130       0.30936668       0.37255929      -0.32572083      -0.26907567
C       -4.30552090      -9.78449029     -14.39663510       0.88147874      -0.02560463      -0.56394561      -0.53313535       0.22493127       0.60160462
H       -4.75689739      -8.98060826     -14.97080004       0.07456971      -0.16069969       0.19564965      -0.19591582      -0.05986248      -0.37445022
F       -2.06866518      -9.93159299     -16.44749331      -0.17855664      -0.84530147      -1.78497738      -0.10510648      -0.08268300       0.08345631
Cl      -3.86014950      -8.42878862     -11.49768481      -1.29642392      -1.30422777      -0.71487913      -0.21212761       0.16643547       0.35258106
H       -2.29971234      -9.51215589     -14.82162867      -0.03292261       0.32319708       0.32389169       0.62973735       0.20656179       0.10277241
H       -2.71780836      -9.96713473     -13.05172080       0.03663928       0.13328054      -0.26522159       0.53799618      -0.01843049      -0.22588355