9
Properties=species:S:1:pos:R:3:momenta:R:3:forces:R:3 R1=H R2=H R3=CH3 R4=CH3 leaving_group=Cl nucleophile=Cl rxn=sn2 config=rcc label=H_H_CH3_CH3_Cl_Cl_sn2_rcc conformation=0 reactant_id=H_H_CH3_CH3_Cl_none_-_r product_id=H_H_CH3_CH3_none_Cl_sn2_pc mp2_author_energy=-29302.391748605172 mp2_my_energy=0 hash=59123 address=T id=71 energy=-17370.412368016237 pbc="F F F"
C        0.12542541       0.11270554      -0.00029240       0.40605259      -0.59276859       0.82487782      -0.09214561       1.11788396      -0.00082481
C        1.62503867       0.00847468       0.00156754       0.38291687      -1.09797761      -0.52661320      -0.06338950      -0.85342640       0.00215309
H        1.99473018      -0.50605055       0.89354482       0.09274910       0.08578009      -0.18887569       0.00320508       0.00300841       0.00517082
F        0.89788639       2.64149152      -0.00442372      -0.87810658       0.02475496       1.32930262      -0.23271315      -0.10403772      -0.00076135
Cl      -0.69504884      -1.53494042       0.00509220       0.88838212      -0.18756215      -0.97070272       0.38207948      -0.16174994      -0.00050876
H       -0.22306082       0.64592326      -0.87549887      -0.04853342      -0.09662892      -0.15227448      -0.00302890      -0.00293595      -0.00472561
H       -0.22431889       0.65275656       0.87018381       0.30396597      -0.04676887      -0.03691475      -0.00396382      -0.00350204       0.00469305
H        1.88822962       1.08069343      -0.00059746      -0.21575992      -0.10243121       0.16239066       0.00778691       0.00253743      -0.00033365
H        1.99700981      -0.51031959      -0.88698835      -0.15325217      -0.17528661       0.35165899       0.00216950       0.00222225      -0.00486279
9
Properties=species:S:1:pos:R:3:momenta:R:3:forces:R:3 R1=H R2=H R3=CH3 R4=CH3 leaving_group=Cl nucleophile=Cl rxn=sn2 config=rcc label=H_H_CH3_CH3_Cl_Cl_sn2_rcc conformation=0 reactant_id=H_H_CH3_CH3_Cl_none_-_r product_id=H_H_CH3_CH3_none_Cl_sn2_pc mp2_author_energy=-29302.391748605172 mp2_my_energy=0 hash=59123 address=T id=71 energy=-17370.147450493085 pbc="F F F"
C        0.49650173      -0.51868823       0.36178613      -0.15745634      -1.20807192      -0.05118131      -0.03692893      -1.16089584       0.80988032
C        1.84519786      -0.40951937      -0.30067831      -0.24254721       0.19760281       0.02587240      -1.34732615       0.67590115       1.08640541
H        2.51991175      -1.15121735       0.01615157      -0.01531124      -0.10563390       0.09205694       0.68935625      -1.44018964       0.12811035
F        0.46855379       1.79609527       1.63426026       0.17061984      -0.33167994       1.94869401       0.28146733      -0.27231697      -0.19278481
Cl      -0.19022039      -2.09253047      -0.37990172       0.98505738      -1.67849083      -0.94627385      -0.06959103       0.08017728       0.27197447
H       -0.15559056       0.29091586       0.12184493      -0.02129252      -0.02259212      -0.16255546      -0.35246699       0.41610326      -0.15698339
H        0.52551075      -0.61234585       1.46993275       0.11220926       0.07750750       0.04392200       0.02384425       0.07750849      -0.99319806
H        2.21662158       0.49000491       0.08428754       0.06803285       0.19148975       0.18898736       0.52838648       1.58702804       0.11399285
H        1.68520091      -0.40884939      -1.34881225       0.06950759       0.15556387      -0.15273697       0.28325878       0.03668424      -1.06739714
9
Properties=species:S:1:pos:R:3:momenta:R:3:forces:R:3 R1=H R2=H R3=CH3 R4=CH3 leaving_group=Cl nucleophile=Cl rxn=sn2 config=rcc label=H_H_CH3_CH3_Cl_Cl_sn2_rcc conformation=0 reactant_id=H_H_CH3_CH3_Cl_none_-_r product_id=H_H_CH3_CH3_none_Cl_sn2_pc mp2_author_energy=-29302.391748605172 mp2_my_energy=0 hash=59123 address=T id=71 energy=-17370.1972781772 pbc="F F F"
C        0.43573983      -1.21489601       0.56218820       0.01376929       0.51649550       0.42774434       0.76865664      -1.42789636      -0.00547911
C        1.36127680      -0.14394773       0.10844403      -0.18035506      -0.15583906       0.05388249       1.51991609       1.45032267       0.18790305
H        2.48510709      -0.40193939       0.01466076       0.14618797      -0.06768472      -0.16350342      -1.91210309      -0.06290272      -0.24805860
F        0.63735547       0.23199321       2.72385038      -0.03827869      -1.73189572       0.73877835      -0.15093531       0.74922938       1.24233612
Cl       0.47337993      -2.54324587      -0.70442790       0.88764178      -0.66717806      -0.28874892      -0.38104391      -0.13227396      -0.38746944
H       -0.55997486      -0.81186474       0.66117819      -0.03034443      -0.16949703      -0.09180187      -0.26758809      -0.15943189      -0.07351229
H        0.71144169      -1.68444947       1.52112119      -0.00015370       0.08953887       0.07877089      -0.03590388       0.62255215      -0.63653570
H        1.32077602       0.52905450       1.00798787      -0.10349740       0.29103515       0.03058540      -0.14119412      -0.40796409      -0.44799316
H        0.94912459       0.41907472      -0.76702285      -0.03693939       0.04465455      -0.11547457       0.60019568      -0.63163518       0.36880913
9
Properties=species:S:1:pos:R:3:momenta:R:3:forces:R:3 R1=H R2=H R3=CH3 R4=CH3 leaving_group=Cl nucleophile=Cl rxn=sn2 config=rcc label=H_H_CH3_CH3_Cl_Cl_sn2_rcc conformation=0 reactant_id=H_H_CH3_CH3_Cl_none_-_r product_id=H_H_CH3_CH3_none_Cl_sn2_pc mp2_author_energy=-29302.391748605172 mp2_my_energy=0 hash=59123 address=T id=71 energy=-17370.32122142418 pbc="F F F"
C        0.83386963      -1.94708806       0.84993789       1.17030902      -0.66556678       0.29495333       0.77601881      -0.01355302      -0.05870550
C        0.70479912      -0.47352601       0.68116265       0.10840010      -0.45497685       1.02630315      -0.85147656       1.01918610       1.72397352
H        1.53097768       0.04042045       0.24393664      -0.18847502      -0.16122008      -0.10166968       1.05915604       0.10974105      -0.26243449
F        0.63800338      -1.32004115       3.32545205      -0.49063641      -0.65616941      -0.53355514      -0.05603157      -0.05523195       0.19691037
Cl       1.08627890      -2.62817525      -0.89159130       0.33594721       0.40889108      -0.45038918      -0.03715893      -0.02230313       0.30971864
H       -0.09338518      -2.31368362       1.21693358       0.28768124      -0.03094748       0.17175581      -0.55645030      -0.60228162       0.18957346
H        1.63281866      -2.30603067       1.50648849       0.03935260      -0.37452161      -0.05708114      -0.26735431       0.38677192      -0.43698166
H        0.50668806      -0.09001270       1.75365449      -0.43784531      -0.03756259       0.19383395       0.39050469      -0.81785510      -1.48094756
H       -0.13946792      -0.24952081       0.04279421      -0.07315321      -0.14135747       0.22136621      -0.45720788      -0.00447425      -0.18110678
9
Properties=species:S:1:pos:R:3:momenta:R:3:forces:R:3 R1=H R2=H R3=CH3 R4=CH3 leaving_group=Cl nucleophile=Cl rxn=sn2 config=rcc label=H_H_CH3_CH3_Cl_Cl_sn2_rcc conformation=0 reactant_id=H_H_CH3_CH3_Cl_none_-_r product_id=H_H_CH3_CH3_none_Cl_sn2_pc mp2_author_energy=-29302.391748605172 mp2_my_energy=0 hash=59123 address=T id=71 energy=-17370.205544214026 pbc="F F F"
C        1.27498855      -2.39036919       1.12635322       0.25470262       0.21973783      -0.29582948       0.11893956       0.41264033      -0.27569758
C        0.12240507      -1.42721497       1.24432388      -1.04595963       0.26019173       1.15700339       0.04377929      -0.14592252       1.50514659
H        0.37216474      -0.38225597       0.98920895      -0.13770089      -0.08170643      -0.07312522      -0.07009631      -0.53300720       0.06142228
F        0.72527135      -3.24528698       3.39120307       0.41043514      -2.51676679       0.15225154      -0.14174000       0.19749998       0.51132707
Cl       1.65462744      -2.53369922      -0.72408496       1.29677471      -0.40629428       0.62747477       0.45744604       0.50789580      -0.10488350
H        1.03332315      -3.37142223       1.41419654       0.06216797       0.02577297      -0.17172052      -0.51887699      -0.87430215       0.29443581
H        2.13143341      -2.12211270       1.75895318       0.01464131      -0.01402542       0.24381181      -0.03559230       0.16014825      -0.65297435
H       -0.16711927      -1.55164044       2.32754412       0.17520997      -0.09546241      -0.45543674       0.52000670       0.24038855      -0.81848319
H       -0.71233258      -1.78558476       0.66432549      -0.02824965      -0.20911528      -0.16382680      -0.37386599       0.03465895      -0.52029313
9
Properties=species:S:1:pos:R:3:momenta:R:3:forces:R:3 R1=H R2=H R3=CH3 R4=CH3 leaving_group=Cl nucleophile=Cl rxn=sn2 config=rcc label=H_H_CH3_CH3_Cl_Cl_sn2_rcc conformation=0 reactant_id=H_H_CH3_CH3_Cl_none_-_r product_id=H_H_CH3_CH3_none_Cl_sn2_pc mp2_author_energy=-29302.391748605172 mp2_my_energy=0 hash=59123 address=T id=71 energy=-17370.215452133798 pbc="F F F"
C        1.51467151      -3.45609122       1.32028340      -0.14250552      -1.46209181      -0.22687213       0.32645378       0.02511937       1.35213356
C        0.01002847      -3.26932414       1.32561001       0.00203505      -0.32853079      -0.64512301       0.84589994       0.10342205       0.25476206
H       -0.24973589      -2.36426488       1.90640946      -0.10271606      -0.08305473      -0.14080013       0.06672641      -0.36104106      -0.35950506
F        0.98623552      -4.98179093       3.15251512       0.72219341      -0.76336095      -0.28301930       0.41143365       0.65522901      -0.93311444
Cl       2.08202945      -2.14659241      -0.05410129       0.02922537       0.35840355       2.32889532       0.15795980      -0.07748192       0.02735339
H        1.89295825      -4.38786376       0.95235975       0.10036038       0.08714534      -0.19603959      -0.25161910      -0.37968396      -0.22983156
H        2.12588920      -3.16845099       2.18029153       0.25500073      -0.18792950       0.00346305      -0.85531692      -0.07267352      -0.16317029
H       -0.32267858      -4.16772569       1.88023156      -0.21069891      -0.47411706      -0.00247156      -0.10930971       0.39893004      -0.39751317
H       -0.28234306      -3.14946078       0.27256058       0.33978072       0.06214974       0.17305040      -0.59222786      -0.29182000       0.44888550
9
Properties=species:S:1:pos:R:3:momenta:R:3:forces:R:3 R1=H R2=H R3=CH3 R4=CH3 leaving_group=Cl nucleophile=Cl rxn=sn2 config=rcc label=H_H_CH3_CH3_Cl_Cl_sn2_rcc conformation=0 reactant_id=H_H_CH3_CH3_Cl_none_-_r product_id=H_H_CH3_CH3_none_Cl_sn2_pc mp2_author_energy=-29302.391748605172 mp2_my_energy=0 hash=59123 address=T id=71 energy=-17370.103673408248 pbc="F F F"
C        1.66473076      -4.19609372       1.61721706       0.44767819      -0.36195297       0.42970319       1.06160080       0.28667214       0.45438292
C        0.47674962      -4.54358114       0.75098188       0.61909040      -0.44119129       0.22223210       1.17789593       2.85582309      -0.26289978
H       -0.35528666      -3.87085668       0.99873362      -0.03705148       0.15639710      -0.18842298      -0.03488518      -0.49505851       0.08609298
F        1.57270039      -6.41862881       2.36633786       0.13462690      -1.41799937      -0.84774981       0.01753188       0.34234545      -0.07849016
Cl       2.10120157      -2.22082828       1.10664885      -0.49686081       0.03297538       1.00777750      -0.24396354      -0.48162972      -0.03927490
H        2.60132705      -4.69098104       1.39853161       0.04538492       0.06164150       0.03357871      -0.32054177       0.02694985      -0.32031818
H        1.62887970      -4.04415556       2.69702498       0.01329231      -0.02903182       0.25635587      -0.79454219      -0.28834046      -0.60261287
H        0.42038762      -5.54609367       1.05864127      -0.08402699       0.04688051      -0.14350713      -0.64681295      -1.64544400       0.07142270
H        0.75068944      -4.32899296      -0.30896111       0.11752930      -0.18387817       0.00378226      -0.21628298      -0.60131784       0.69169729
9
Properties=species:S:1:pos:R:3:momenta:R:3:forces:R:3 R1=H R2=H R3=CH3 R4=CH3 leaving_group=Cl nucleophile=Cl rxn=sn2 config=rcc label=H_H_CH3_CH3_Cl_Cl_sn2_rcc conformation=0 reactant_id=H_H_CH3_CH3_Cl_none_-_r product_id=H_H_CH3_CH3_none_Cl_sn2_pc mp2_author_energy=-29302.391748605172 mp2_my_energy=0 hash=59123 address=T id=71 energy=-17370.11974491967 pbc="F F F"
C        1.86195274      -5.09611458       1.79757369       0.32076927       0.54017929      -0.59785269       0.33660608      -0.17790550       0.40866510
C        1.60667910      -4.97578924       0.35100235       0.75025847       0.03951682       0.04460176       0.70608331      -1.44210128      -0.36057408
H        0.65668186      -4.58902672       0.05694047      -0.06438655      -0.24257004      -0.22990649      -0.61763409       0.57699189      -0.00807054
F        2.37966165      -7.26472343       1.34446588       0.40305891      -0.13031476      -0.12069135      -0.13188467       0.11858292       0.23772262
Cl       1.79397022      -3.13511697       2.46064163      -0.57007865      -2.49458160       2.04689209      -0.23449010       0.20252245      -0.07784211
H        2.84810519      -5.33296626       2.11559912       0.11195000      -0.14865107      -0.17401111       0.32837856      -0.17789506      -0.15194375
H        1.11762968      -5.51683277       2.42786584      -0.05923450      -0.16977362       0.09803622      -0.47339462      -0.34536207       0.18785309
H        1.74502890      -6.01343520      -0.00035156      -0.08986271       0.24589240      -0.09589716      -0.39365309       0.19134562       0.34048956
H        2.43399212      -4.46698631      -0.07907429       0.10386966      -0.18832151      -0.04802039       0.47998864       1.05382104      -0.57629989
9
Properties=species:S:1:pos:R:3:momenta:R:3:forces:R:3 R1=H R2=H R3=CH3 R4=CH3 leaving_group=Cl nucleophile=Cl rxn=sn2 config=rcc label=H_H_CH3_CH3_Cl_Cl_sn2_rcc conformation=0 reactant_id=H_H_CH3_CH3_Cl_none_-_r product_id=H_H_CH3_CH3_none_Cl_sn2_pc mp2_author_energy=-29302.391748605172 mp2_my_energy=0 hash=59123 address=T id=71 energy=-17370.047660138298 pbc="F F F"
C        2.16974885      -5.86750081       1.78097333       0.76127488      -0.68694957      -0.36558553       0.70345025       0.90932871       0.76954132
C        2.61134386      -4.84329141       0.79682424       0.71689444      -0.54996102       0.10026882       0.64880234      -1.13986734      -1.71430983
H        1.77395582      -4.34317459       0.38479202       0.20838511       0.12767170       0.22176786      -1.06838456       0.92380164       0.01113617
F        2.93720469      -7.53052095       0.63807791       0.38314146      -0.01463030      -1.09984277       0.16938971      -0.47083793      -0.49007066
Cl       1.50091353      -4.30655762       3.22277740      -1.03008577      -1.19070872       1.63461445      -0.33515823       0.05007746       0.38968439
H        2.87557841      -6.29278306       2.46927212      -0.16545732      -0.10364914      -0.02849606      -0.04945032      -0.00947092      -0.07596373
H        1.22796071      -6.34656742       1.68152056       0.10310855      -0.16594103       0.32568307      -0.39912892      -0.17020437      -0.09231989
H        3.06265320      -5.28337470      -0.09708010       0.18325068       0.10288144       0.01039485       0.04630005      -0.66016758       0.43901357
H        3.33386725      -4.14184832       1.14998608      -0.25540597      -0.06385672       0.12308541       0.28417969       0.56734033       0.76328865
9
Properties=species:S:1:pos:R:3:momenta:R:3:forces:R:3 R1=H R2=H R3=CH3 R4=CH3 leaving_group=Cl nucleophile=Cl rxn=sn2 config=rcc label=H_H_CH3_CH3_Cl_Cl_sn2_rcc conformation=0 reactant_id=H_H_CH3_CH3_Cl_none_-_r product_id=H_H_CH3_CH3_none_Cl_sn2_pc mp2_author_energy=-29302.391748605172 mp2_my_energy=0 hash=59123 address=T id=71 energy=-17370.17958523568 pbc="F F F"
C        2.60217220      -6.53397158       1.78496779       0.10602233      -0.08989573      -0.34513275      -0.02358362      -1.03149255      -0.79925106
C        3.57249442      -5.38871077       1.78046450       0.03170244       0.12911431       0.50534421      -0.39951997      -0.30004604       1.86198912
H        3.22618572      -4.59228744       2.47214262       0.04167580      -0.39824437       0.28347599       0.09758387      -0.20012432      -0.89328978
F        3.50207913      -7.15328181      -0.01572945       0.17863498       0.36093448       0.11678450      -0.38792261       0.14076204       0.71075729
Cl       1.27053269      -5.83436748       3.79833469       0.53103978      -1.45191081      -0.26646806       0.19434831      -0.05123001      -0.15551173
H        2.80985777      -7.45193401       2.37153832      -0.15759834      -0.01972814       0.10849136      -0.24659005       0.97785358      -0.50498071
H        1.62836402      -6.44467987       1.27974030      -0.06521897      -0.17395706       0.13347090       0.77968014       0.03785970       0.44688116
H        3.71013736      -5.13044717       0.74272666       0.04394149      -0.01562326       0.11689478       0.12676128       0.35987253      -0.18145355
H        4.51647312      -5.74663682       2.22406173      -0.10831163      -0.03318827      -0.03981179      -0.14075737       0.06654508      -0.48514075
9
Properties=species:S:1:pos:R:3:momenta:R:3:forces:R:3 R1=H R2=H R3=CH3 R4=CH3 leaving_group=Cl nucleophile=Cl rxn=sn2 config=rcc label=H_H_CH3_CH3_Cl_Cl_sn2_rcc conformation=0 reactant_id=H_H_CH3_CH3_Cl_none_-_r product_id=H_H_CH3_CH3_none_Cl_sn2_pc mp2_author_energy=-29302.391748605172 mp2_my_energy=0 hash=59123 address=T id=71 energy=-17370.22463916797 pbc="F F F"
C        2.87321991      -6.77014243       1.82125628       0.25468886       0.46784508       1.05538906      -0.97876168      -0.01256411       1.00654412
C        4.10203914      -6.26031244       2.50480089       0.40415524      -1.02386273      -0.19530734       0.15773376       0.55938799       0.33333729
H        4.91268333      -6.98350379       2.36170085      -0.08911722       0.07254953      -0.12646736      -0.30280883      -0.11144604       0.40592645
F        3.83695143      -6.54670260       0.14126912       0.91942177       0.84981050       0.07333566       0.67387734       0.00779789      -1.73280761
Cl       1.27163893      -7.14621954       3.91858753      -0.07554127      -2.71934604       0.20706366       0.41149956       0.12934884      -0.28730390
H        2.64381349      -7.82585982       1.75323519      -0.12577453      -0.12350832      -0.02849535       0.36208346       0.23181280       0.16225401
H        2.04767120      -6.12889657       1.54131693      -0.32518491      -0.12467978       0.05959195       0.36896504       0.08423749       0.28106338
H        3.93825795      -5.96088933       3.53246391       0.03207284      -0.20826154      -0.03050965      -0.07355530      -0.65666315       0.34036663
H        4.51932292      -5.35010668       2.04564963       0.02210740      -0.04985074       0.02108331      -0.61903335      -0.23191171      -0.50938038
9
Properties=species:S:1:pos:R:3:momenta:R:3:forces:R:3 R1=H R2=H R3=CH3 R4=CH3 leaving_group=Cl nucleophile=Cl rxn=sn2 config=rcc label=H_H_CH3_CH3_Cl_Cl_sn2_rcc conformation=0 reactant_id=H_H_CH3_CH3_Cl_none_-_r product_id=H_H_CH3_CH3_none_Cl_sn2_pc mp2_author_energy=-29302.391748605172 mp2_my_energy=0 hash=59123 address=T id=71 energy=-17370.234889503423 pbc="F F F"
C        3.07158091      -6.94613949       2.15644516       0.53114596       0.15514213       0.42587733       0.43464611      -0.80928503       0.56917492
C        4.28687702      -7.43981371       2.89309685       0.16511675      -0.64109388       0.19295058       0.56856448       0.15626563      -0.69440041
H        5.13359844      -7.06047964       2.25993220       0.05050582       0.07170268      -0.06128274      -0.59504526      -0.44984633       0.79880158
F        4.08421812      -5.80836097       0.84123871       0.20268959       0.46529660       0.84057867      -0.15261135      -0.36256633       0.30442737
Cl       1.54032301      -8.53588769       3.81527554      -0.51398439      -2.63108192       0.05935257       0.41475808       0.52448228      -0.57394670
H        2.59568794      -7.60763322       1.47872784      -0.09039208      -0.12570786      -0.08731229      -0.42840272      -0.26834989      -0.38890071
H        2.63580972      -6.00936636       2.36850558       0.07051695       0.06126754       0.09801223      -0.29173442       0.38206775       0.31458292
H        4.30775550      -8.54267838       3.00544619       0.39255439      -0.11306333      -0.32588383      -0.07696881       0.65395056      -0.29505993
H        4.31165499      -7.03124496       3.90343094       0.11880944       0.15093496      -0.19814076       0.12679390       0.17328136      -0.03467903
9
Properties=species:S:1:pos:R:3:momenta:R:3:forces:R:3 R1=H R2=H R3=CH3 R4=CH3 leaving_group=Cl nucleophile=Cl rxn=sn2 config=rcc label=H_H_CH3_CH3_Cl_Cl_sn2_rcc conformation=0 reactant_id=H_H_CH3_CH3_Cl_none_-_r product_id=H_H_CH3_CH3_none_Cl_sn2_pc mp2_author_energy=-29302.391748605172 mp2_my_energy=0 hash=59123 address=T id=71 energy=-17370.280449083224 pbc="F F F"
C        3.27895179      -7.57819298       2.99943253       0.58109464       0.03165999       0.33841699       1.90112497       1.12461296       0.52306019
C        4.59892207      -8.15722479       2.62002688       0.56155413      -0.15786019      -0.34736131       0.00187970       0.74979956      -0.26211588
H        5.35950263      -7.56134334       3.15247371       0.05521090      -0.10504371      -0.06238933      -0.22778440      -0.08757008      -0.31193784
F        4.03681889      -5.74290314       2.56000340       0.13871318       0.61515614       1.42847670      -0.55386753      -1.13528285       0.43422335
Cl       2.00191053      -9.83859058       3.33540441      -0.05050271      -2.76779791      -0.60099474       0.20746992       0.12260588      -0.04547480
H        2.54154346      -7.46656875       2.29246512      -0.07639001      -0.30100886       0.07863413      -1.43923312       0.16558971      -1.16400315
H        3.00001140      -7.59001960       4.03282647       0.04986609       0.08745679       0.06887982      -0.06578627       0.18191724       0.14493189
H        4.75221295      -8.00538224       1.51689930      -0.14269705       0.08909003      -0.14692406      -0.02491125      -0.48815246       1.05270526
H        4.63433071      -9.17187514       2.96795045      -0.20400802      -0.05854653       0.17303041       0.20110798      -0.63351997      -0.37138901
9
Properties=species:S:1:pos:R:3:momenta:R:3:forces:R:3 R1=H R2=H R3=CH3 R4=CH3 leaving_group=Cl nucleophile=Cl rxn=sn2 config=rcc label=H_H_CH3_CH3_Cl_Cl_sn2_rcc conformation=0 reactant_id=H_H_CH3_CH3_Cl_none_-_r product_id=H_H_CH3_CH3_none_Cl_sn2_pc mp2_author_energy=-29302.391748605172 mp2_my_energy=0 hash=59123 address=T id=71 energy=-17370.342777681657 pbc="F F F"
C        3.54662068      -8.53886973       3.65171854      -0.20601600      -0.15456778      -0.33780886      -0.42077684      -0.19556031      -1.04347522
C        4.28180329      -8.15608935       2.40539735      -0.29740176       0.20611286       0.82199564      -0.40004282       0.40397473      -1.26800927
H        3.67718093      -7.51049366       1.69501395      -0.06641486       0.01646690      -0.00115669       0.40028176      -0.76162527       0.97818182
F        4.02183791      -6.96531679       4.74022385       0.24328606      -0.61861427       0.71993883       0.30161122       0.66372875       0.32580618
Cl       2.77555788     -10.87667684       2.76282392       0.46262505      -1.44846874      -0.70868049      -0.07021309       0.05879485      -0.11238843
H        2.50130627      -8.32428067       3.75862243       0.37538600      -0.19302149       0.23451639      -0.06240504      -0.12433122      -0.05716268
H        3.95056577      -9.29192446       4.27334134       0.08348451       0.02436604      -0.12667249       0.38581722      -0.24223156       0.54348658
H        4.58763415      -9.04757226       1.84094296       0.17099000       0.05059099       0.03481036      -0.15048210       0.23076444       0.25658092
H        5.16994104      -7.57006369       2.64115123      -0.06226671       0.13842062       0.07977829       0.01620969      -0.03351440       0.37698010
9
Properties=species:S:1:pos:R:3:momenta:R:3:forces:R:3 R1=H R2=H R3=CH3 R4=CH3 leaving_group=Cl nucleophile=Cl rxn=sn2 config=rcc label=H_H_CH3_CH3_Cl_Cl_sn2_rcc conformation=0 reactant_id=H_H_CH3_CH3_Cl_none_-_r product_id=H_H_CH3_CH3_none_Cl_sn2_pc mp2_author_energy=-29302.391748605172 mp2_my_energy=0 hash=59123 address=T id=71 energy=-17370.29787135581 pbc="F F F"
C        3.81008280      -9.41138795       4.11998091       0.22482935      -0.16699785       0.12543886      -2.17474199      -0.33550099       0.66476358
C        3.49003413      -8.32770033       3.12826445      -0.23849751      -0.68485016       0.76566424      -0.06881388       0.36836061       1.21535486
H        2.46812167      -7.92558536       3.32518987      -0.22998583       0.12865220       0.20741352       0.72598222      -0.21647604      -0.33092588
F        4.10793918      -8.16445343       5.65677981       0.20231395      -0.55183159       0.79180294       0.02511765      -0.08627835      -0.35825701
Cl       3.47639172     -11.27586627       2.29835881       1.18296430      -0.97115731      -1.46241978       0.03744563       0.06880648       0.20812226
H        3.05088536      -9.95186523       4.76056309       0.17421080       0.04955164      -0.11183253       0.94226051       0.93714404      -1.28870030
H        4.76196110      -9.83406173       4.08463096      -0.19520657      -0.03559660       0.29116260       1.21864231      -0.56662496       0.02358041
H        3.61869144      -8.65799530       2.10153665      -0.09576734       0.07874982       0.11397004      -0.18748083      -0.05778895       0.05302720
H        4.24054900      -7.55210389       3.37040824      -0.15918445      -0.28078878       0.16052966      -0.51841162      -0.11164184      -0.18696513
9
Properties=species:S:1:pos:R:3:momenta:R:3:forces:R:3 R1=H R2=H R3=CH3 R4=CH3 leaving_group=Cl nucleophile=Cl rxn=sn2 config=rcc label=H_H_CH3_CH3_Cl_Cl_sn2_rcc conformation=0 reactant_id=H_H_CH3_CH3_Cl_none_-_r product_id=H_H_CH3_CH3_none_Cl_sn2_pc mp2_author_energy=-29302.391748605172 mp2_my_energy=0 hash=59123 address=T id=71 energy=-17370.275992864776 pbc="F F F"
C        4.09776265     -10.44220584       4.43924456      -0.13283380       0.32406618       0.19137624       1.34156031       0.36301718       0.35960571
C        2.76375256      -9.78923281       4.22905154      -0.23183096      -0.81374816       0.83044171       0.33312687       1.77686324      -0.12698555
H        1.93345470     -10.42791670       4.50374435       0.17725144      -0.04425112       0.02456512       0.06005491      -0.33159521       0.23145459
F        4.13742593      -9.80356383       6.35177441      -0.05119386      -1.14305573       0.71437275       0.05277512      -0.30126553      -0.69882700
Cl       4.31110250     -11.21177165       2.00759717       0.97998905      -0.16334561      -1.01753309      -0.05001065      -0.12478951      -0.20421956
H        4.11682929     -11.50316701       4.58837214       0.14930763      -0.19191547      -0.00588973      -0.04567388      -0.15303854       0.12631028
H        5.11183768     -10.04667596       4.12250574      -0.07568676      -0.04570785       0.10979965      -2.13080919      -0.00866160       0.57424427
H        2.58875180      -9.46536031       3.19324408       0.06522130      -0.09974591      -0.06917671       0.30318040      -0.23951590       0.24438254
H        2.72504797      -8.87559066       4.88807600      -0.13275013       0.07581935      -0.01662109       0.13579610      -0.98101414      -0.50596529
9
Properties=species:S:1:pos:R:3:momenta:R:3:forces:R:3 R1=H R2=H R3=CH3 R4=CH3 leaving_group=Cl nucleophile=Cl rxn=sn2 config=rcc label=H_H_CH3_CH3_Cl_Cl_sn2_rcc conformation=0 reactant_id=H_H_CH3_CH3_Cl_none_-_r product_id=H_H_CH3_CH3_none_Cl_sn2_pc mp2_author_energy=-29302.391748605172 mp2_my_energy=0 hash=59123 address=T id=71 energy=-17370.263552480297 pbc="F F F"
C        4.28684758     -11.21780091       4.74879317       0.27188106      -1.69314118      -0.18605930      -0.16636046       0.46711581      -0.52456573
C        2.99539981     -11.99598030       4.52214628       0.71190978      -1.07327141       0.16631412       0.58259900      -0.49592244      -0.80664903
H        3.12521923     -13.11937251       4.63376987       0.11952010      -0.17979733       0.03051012       0.11372800       1.45865042      -0.29032025
F        4.10411832     -11.60775618       6.67065091      -0.62770433      -2.10080303       1.12846167       0.03999334       0.00072543       1.13199267
Cl       4.81225811     -10.85204197       2.25548941       0.79258861       1.06447441       0.07632965      -0.10236202       0.01799353      -0.01125691
H        5.30870302     -11.57747269       4.69486724      -0.00589252       0.18995234      -0.04576180      -0.80392969      -0.51954522      -0.08831364
H        4.24577865     -10.12647433       4.73770360      -0.06543116       0.43340381       0.01659948      -0.28909897      -0.61165650       0.06027613