9
Properties=species:S:1:pos:R:3:momenta:R:3:forces:R:3 R1=H R2=H R3=CH3 R4=CH3 leaving_group=Cl nucleophile=Cl rxn=sn2 config=rcc label=H_H_CH3_CH3_Cl_Cl_sn2_rcc conformation=0 reactant_id=H_H_CH3_CH3_Cl_none_-_r product_id=H_H_CH3_CH3_none_Cl_sn2_pc mp2_author_energy=-29302.391748605172 mp2_my_energy=0 hash=59123 address=T id=71 energy=-17370.412368016237 pbc="F F F"
C        0.12542541       0.11270554      -0.00029240       0.83806108       0.80918953       0.22570084      -0.09214561       1.11788396      -0.00082481
C        1.62503867       0.00847468       0.00156754      -0.75348106       0.54543555       1.27547003      -0.06338950      -0.85342640       0.00215309
H        1.99473018      -0.50605055       0.89354482       0.08017802      -0.01755687       0.17670519       0.00320508       0.00300841       0.00517082
F        0.89788639       2.64149152      -0.00442372       0.39840640       0.46767691      -0.69808136      -0.23271315      -0.10403772      -0.00076135
Cl      -0.69504884      -1.53494042       0.00509220      -0.50208034      -1.13215129       0.22963408       0.38207948      -0.16174994      -0.00050876
H       -0.22306082       0.64592326      -0.87549887      -0.04866480       0.01558983      -0.02163277      -0.00302890      -0.00293595      -0.00472561
H       -0.22431889       0.65275656       0.87018381       0.32529669      -0.18073641      -0.11011611      -0.00396382      -0.00350204       0.00469305
H        1.88822962       1.08069343      -0.00059746      -0.21943537      -0.09780071       0.18667389       0.00778691       0.00253743      -0.00033365
H        1.99700981      -0.51031959      -0.88698835       0.08674816      -0.11821395      -0.12730949       0.00216950       0.00222225      -0.00486279
9
Properties=species:S:1:pos:R:3:momenta:R:3:forces:R:3 R1=H R2=H R3=CH3 R4=CH3 leaving_group=Cl nucleophile=Cl rxn=sn2 config=rcc label=H_H_CH3_CH3_Cl_Cl_sn2_rcc conformation=0 reactant_id=H_H_CH3_CH3_Cl_none_-_r product_id=H_H_CH3_CH3_none_Cl_sn2_pc mp2_author_energy=-29302.391748605172 mp2_my_energy=0 hash=59123 address=T id=71 energy=-17370.282955731986 pbc="F F F"
C        0.30322953       0.21446659       0.33950199      -0.29180769      -0.38636944      -0.16863106      -1.46854142      -0.83614821      -0.00451290
C        0.62649931       0.58276486       1.71815959       0.00816873       0.24286164       0.83220139      -0.17691466       0.09673726       1.72749131
H       -0.28532825       0.65880034       2.33776840      -0.05507420       0.14753642      -0.13977973       0.39942364       0.07036747      -0.16208859
F        1.36646605       2.44602333      -0.53246515       0.22844902      -0.52495134       0.23146278       0.26900298       0.54983010       0.08894981
Cl      -0.41540211      -1.45601636       0.42385518       0.38534866       0.26631752       0.17789107      -0.15107074      -0.53104303      -0.08725150
H        1.19717933       0.24997510      -0.20365482      -0.03261883       0.09214865       0.21637748       0.92084381      -0.21822343      -1.26807051
H       -0.43827857       0.87539638      -0.10423779       0.02669787      -0.09972435      -0.03112317       0.32387201      -0.08902865       0.03055680
H        1.07932033       1.54598574       1.55631379       0.02034811       0.17836870      -0.24963818       0.25132016       0.55003075       0.21460025
H        1.32164622      -0.11847921       2.23404507      -0.10541542       0.34549082       0.15219659      -0.36793580       0.40747774      -0.53967467
9
Properties=species:S:1:pos:R:3:momenta:R:3:forces:R:3 R1=H R2=H R3=CH3 R4=CH3 leaving_group=Cl nucleophile=Cl rxn=sn2 config=rcc label=H_H_CH3_CH3_Cl_Cl_sn2_rcc conformation=0 reactant_id=H_H_CH3_CH3_Cl_none_-_r product_id=H_H_CH3_CH3_none_Cl_sn2_pc mp2_author_energy=-29302.391748605172 mp2_my_energy=0 hash=59123 address=T id=71 energy=-17370.237309399716 pbc="F F F"
C        0.60275430       0.19094186       0.66717951      -0.02665760       0.04514986       0.59038676      -1.81750173      -0.40262132      -0.04082445
C       -0.54133630       1.19400683       0.77255385       0.25800448      -0.03208105      -1.14445896       2.14083868       0.82832491       0.31485777
H       -1.46376184       0.83835069       0.36780270      -0.05971209      -0.28259516       0.10022602      -0.51802835      -0.43970651      -0.34388404
F        2.02717628       2.36098998       0.10615803       0.43817660       0.22380350       0.66014672      -0.63298514      -0.86639215       0.07219533
Cl      -0.20846196      -1.38293464       1.39662859      -0.05884735       0.85703786       1.52548157       0.40134550       0.21338733      -0.18093945
H        1.49592762       0.33246056       1.21332360       0.03656193      -0.09649661      -0.10123029       0.48752078       0.61271014       0.44255603
H        0.79890640      -0.11163131      -0.33697087       0.06354483      -0.04820253      -0.24393610       0.34800110       0.14160122      -0.49947960
H       -0.12292813       2.05653337       0.20644203      -0.16747841      -0.11140204      -0.05745259      -0.24216762      -0.23994630       0.48630144
H       -0.66322568       1.44211423       1.83478049      -0.23490727      -0.20172708       0.04998970      -0.16702322       0.15264269      -0.25078304
9
Properties=species:S:1:pos:R:3:momenta:R:3:forces:R:3 R1=H R2=H R3=CH3 R4=CH3 leaving_group=Cl nucleophile=Cl rxn=sn2 config=rcc label=H_H_CH3_CH3_Cl_Cl_sn2_rcc conformation=0 reactant_id=H_H_CH3_CH3_Cl_none_-_r product_id=H_H_CH3_CH3_none_Cl_sn2_pc mp2_author_energy=-29302.391748605172 mp2_my_energy=0 hash=59123 address=T id=71 energy=-17370.239099033275 pbc="F F F"
C        0.56153963       0.39856811       1.30966978      -0.04877967       0.82046267       0.39929590      -0.21699295       1.57508461       1.07697400
C        0.20355404       0.43893011      -0.16308922       0.74828081      -0.55167817       0.45704675      -0.25980867      -2.29515292       0.93467044
H        0.47446524      -0.56649545      -0.54495379       0.32051476       0.22155359       0.16842898      -0.04103438       0.63006471      -0.48953745
F        1.96546081       2.42707786       0.61422701      -0.07848836       0.03705872      -0.70316636       0.74307791       1.09366284      -0.31343110
Cl      -0.31146048      -0.94482143       2.20855102      -1.14577360      -0.71794051       0.89540814      -0.38723782       0.09373910      -0.36846377
H        0.41628617       1.43840950       1.71703596       0.13640472       0.29004543      -0.05642084      -0.30066368      -1.35127105      -0.02522908
H        1.60880015       0.24334722       1.52386081       0.10481512       0.19744164       0.37663676       0.17593387      -0.20293724      -0.50728889
H        0.81397423       1.27012224      -0.49532276       0.07891491       0.18735019      -0.04978552       0.26564091       0.23882480      -0.30106895
H       -0.87282187       0.56373300      -0.30502978       0.15001545      -0.10633135      -0.01279818       0.02108482       0.21798514      -0.00662520
9
Properties=species:S:1:pos:R:3:momenta:R:3:forces:R:3 R1=H R2=H R3=CH3 R4=CH3 leaving_group=Cl nucleophile=Cl rxn=sn2 config=rcc label=H_H_CH3_CH3_Cl_Cl_sn2_rcc conformation=0 reactant_id=H_H_CH3_CH3_Cl_none_-_r product_id=H_H_CH3_CH3_none_Cl_sn2_pc mp2_author_energy=-29302.391748605172 mp2_my_energy=0 hash=59123 address=T id=71 energy=-17370.285903682226 pbc="F F F"
C        0.52956445       0.53605628       1.59189030      -0.51218184      -1.19004638       0.25939484       1.71622543       3.08939013      -0.96781983
C        1.55920899      -0.31767425       0.85330421       0.31556235       0.03041443       0.46473908      -0.61534525       0.42803305      -0.10408091
H        2.21273353      -0.83085065       1.54846299       0.22803366      -0.08515617       0.13983969       0.34041584       0.19499088       0.38063937
F        1.72326096       2.59568049       0.56532976      -0.19402667      -0.13343103       0.20391945      -0.90557913      -1.93587017       0.80413742
Cl      -0.59019404      -0.55053280       2.53549525       0.61690997       1.89999310      -0.13288671      -0.00371642      -0.59885475       0.29994666
H       -0.12076473       1.15227972       0.96063602      -0.26647435      -0.13165742      -0.09507940       0.63323516      -0.40847229      -0.02503671
H        1.06387473       1.23504450       2.26132568      -0.16516454       0.01068938       0.11557770      -0.53745847      -0.48921526      -0.35103525
H        2.11178108       0.40616215       0.21010446      -0.10459231      -0.04165000       0.22776785      -0.46673638      -0.42245590       0.47492050
H        1.07869700      -1.13210947       0.31591675       0.27795737      -0.08052342      -0.09616863      -0.16104077       0.14245431      -0.51167126
9
Properties=species:S:1:pos:R:3:momenta:R:3:forces:R:3 R1=H R2=H R3=CH3 R4=CH3 leaving_group=Cl nucleophile=Cl rxn=sn2 config=rcc label=H_H_CH3_CH3_Cl_Cl_sn2_rcc conformation=0 reactant_id=H_H_CH3_CH3_Cl_none_-_r product_id=H_H_CH3_CH3_none_Cl_sn2_pc mp2_author_energy=-29302.391748605172 mp2_my_energy=0 hash=59123 address=T id=71 energy=-17370.181235862627 pbc="F F F"
C        0.60012277       0.57599000       1.74625158       0.87422789      -0.29237308       0.29508277      -1.11086547      -0.11894634      -1.43839034
C        1.73451330       0.70185652       2.72904550      -0.89214073       0.83172782       1.18290242       0.15698645       1.47072691      -0.58330213
H        1.36515319       1.12500744       3.67722010       0.03151625      -0.13704973      -0.11568897       0.21994867      -0.11623096      -0.31258916
F        1.99613812       2.03387215       0.25331115       0.41072980      -0.52127792      -0.72272375      -0.37494971      -0.48615362       0.42697706
Cl      -0.66041024      -0.44463095       2.81614147      -0.52664665      -0.32867737       0.81010873       0.32990462       0.07461319      -0.73762419
H        0.83052601       0.04768452       0.78659144       0.22528763       0.11154099       0.01228091       0.02042327       0.15560964       1.35442020
H       -0.03195921       1.43085077       1.38528640       0.12702276       0.28950898       0.00971805       1.35794770      -0.48427185       1.12638520
H        2.43976927       1.38174914       2.21451108       0.08205744       0.35077098       0.07396941      -0.36112633      -0.12350538       0.19329394
H        2.24660819      -0.23394289       2.92212451      -0.08090774       0.05281493      -0.15284569      -0.23826918      -0.37184160      -0.02917058
9
Properties=species:S:1:pos:R:3:momenta:R:3:forces:R:3 R1=H R2=H R3=CH3 R4=CH3 leaving_group=Cl nucleophile=Cl rxn=sn2 config=rcc label=H_H_CH3_CH3_Cl_Cl_sn2_rcc conformation=0 reactant_id=H_H_CH3_CH3_Cl_none_-_r product_id=H_H_CH3_CH3_none_Cl_sn2_pc mp2_author_energy=-29302.391748605172 mp2_my_energy=0 hash=59123 address=T id=71 energy=-17370.228714564488 pbc="F F F"
C        0.76069108       0.57355452       2.23505816      -0.74243938      -0.08742504       0.00039577       1.78498524      -1.79914775      -2.90536041
C        1.00986782       1.80999008       2.96013406      -0.16125382      -0.04280030      -0.48885252      -0.85221754       1.23092556       1.94253678
H        0.04906954       2.29363045       3.25817366      -0.07860626       0.01649062      -0.08162873       0.58189962      -0.26502382      -0.19101206
F        2.46215217       1.34352771       0.62981365       0.24340719       0.09822919       1.17375337      -0.24602791      -0.03139209       0.29610526
Cl      -0.52945236      -0.34026983       3.11729294       0.76446126       0.76985930       0.63561756      -0.81325940      -0.57155860       0.77127025
H        1.63645338      -0.11987491       2.05015574       0.17961485      -0.08970123       0.04842929      -1.02959629       1.25920692       0.60348658
H        0.41353724       0.79313601       1.22890855      -0.09088270      -0.25034888      -0.14301958      -0.16603662      -0.12113742       0.14762517
H        1.53170954       2.45009613       2.29492934       0.04030865      -0.12646531      -0.22467433       0.71477419       0.39306924      -0.71390098
H        1.59745899       1.67232199       3.87026664       0.01047361      -0.05318502      -0.00450472       0.02547870      -0.09494203       0.04924941
9
Properties=species:S:1:pos:R:3:momenta:R:3:forces:R:3 R1=H R2=H R3=CH3 R4=CH3 leaving_group=Cl nucleophile=Cl rxn=sn2 config=rcc label=H_H_CH3_CH3_Cl_Cl_sn2_rcc conformation=0 reactant_id=H_H_CH3_CH3_Cl_none_-_r product_id=H_H_CH3_CH3_none_Cl_sn2_pc mp2_author_energy=-29302.391748605172 mp2_my_energy=0 hash=59123 address=T id=71 energy=-17370.21428194658 pbc="F F F"
C        0.92108508       0.69155231       2.58931188      -0.59850851       0.05285683      -0.02657460       2.14687120      -1.89579738       0.07590941
C        0.33674911       1.95610972       2.08971510       0.03321815      -0.02174296      -0.70990328       1.23192911      -0.47118566      -1.33179115
H       -0.51306962       1.77017280       1.42887737      -0.06584546      -0.13560301      -0.14000656      -0.05275475       0.17283129       0.14614169
F        3.01220013       1.15744733       1.42890091       0.88478598      -0.03284234       0.24726940      -1.38226213      -0.05708150       0.63080932
Cl      -0.47789146      -0.14741670       3.66799242       0.01041911       0.59302231       1.12853538       0.66270045       0.38706726      -0.43748174
H        1.84887356       0.78260471       3.21407028      -0.00263905      -0.04207752       0.21662735      -1.33293588       0.10556911      -0.54148134
H        1.19931070      -0.04878485       1.79044400       0.22663294       0.02818533       0.06667255      -0.63201148       0.96540601       0.92175484
H        1.23842861       2.23119622       1.51569404      -0.02876739       0.11471745       0.23055735      -0.28187429       0.34849867      -0.16691067
H        0.13735205       2.68868961       2.83813215      -0.25893620      -0.27172042       0.09797237      -0.35966222       0.44469220       0.70304965
9
Properties=species:S:1:pos:R:3:momenta:R:3:forces:R:3 R1=H R2=H R3=CH3 R4=CH3 leaving_group=Cl nucleophile=Cl rxn=sn2 config=rcc label=H_H_CH3_CH3_Cl_Cl_sn2_rcc conformation=0 reactant_id=H_H_CH3_CH3_Cl_none_-_r product_id=H_H_CH3_CH3_none_Cl_sn2_pc mp2_author_energy=-29302.391748605172 mp2_my_energy=0 hash=59123 address=T id=71 energy=-17370.108593040488 pbc="F F F"
C        0.97586785       0.80481862       3.01703980       0.57989311      -0.64286893      -0.35685570       2.02722905      -0.54926356       2.72507109
C        0.63791880       0.63778096       1.61242133       0.00819346      -0.83098574       0.06940684       0.61878409       0.55581408      -0.83518999
H        0.63182179      -0.39819253       1.35039355      -0.06694691      -0.04193729      -0.05348404      -0.16557091      -0.74222567      -0.42879332
F        3.09677106       1.48009846       2.22107886      -0.83408817       0.49168660       1.41623930       0.12794905       0.02556101      -0.07565134
Cl      -0.51656424       0.41189729       4.12297601       0.09390593       1.50332102       0.45186258      -0.52903895      -0.09658098      -0.24116434
H        1.23548432       1.84192460       3.21845103       0.23513105      -0.03684695      -0.07953434       0.06602393      -0.39513680       0.37173042
H        1.73564120       0.05551272       3.43671744       0.24325928       0.16151079       0.07533011      -0.99711510       1.61889741      -1.03049574
H        1.58409173       1.15141509       1.22833390      -0.04790482      -0.07541077      -0.19841771      -1.03415119      -0.58999727      -0.11439961
H       -0.31069278       1.11444080       1.38533501       0.03027780      -0.18488136       0.01598270      -0.11410998       0.17293176      -0.37110716
9
Properties=species:S:1:pos:R:3:momenta:R:3:forces:R:3 R1=H R2=H R3=CH3 R4=CH3 leaving_group=Cl nucleophile=Cl rxn=sn2 config=rcc label=H_H_CH3_CH3_Cl_Cl_sn2_rcc conformation=0 reactant_id=H_H_CH3_CH3_Cl_none_-_r product_id=H_H_CH3_CH3_none_Cl_sn2_pc mp2_author_energy=-29302.391748605172 mp2_my_energy=0 hash=59123 address=T id=71 energy=-17370.071956188836 pbc="F F F"
C        1.12724589       1.05655341       3.47577089      -0.22344264       0.55365533       0.08039203      -1.67890503       1.06334237       0.74790497
C        1.42126559      -0.32250713       3.09762543       0.86143023      -0.36497002       1.07930148       0.85738611      -1.29345722      -1.63660993
H        1.76147325      -0.92482748       3.92965694       0.00953435      -0.17536366      -0.06333336      -0.09184207      -0.05436362       0.33003798
F        3.06718529       1.64755578       2.41039448      -0.21437814      -0.31532397       0.09486716       1.10688567       0.32110854      -0.36901603
Cl      -0.72354833       0.87324469       4.13772694      -0.23688367       0.67650482      -0.00371739       0.37316754       0.28269077       0.32770286
H        1.02717077       1.77167308       2.61819134      -0.21234559      -0.21204860      -0.09689479       0.27886703      -0.70667692       1.35631259
H        1.75943201       1.31240158       4.36600234      -0.05746354       0.15020456       0.23922305      -0.83926732       0.50377445      -1.08941837
H        2.28834613      -0.12967806       2.43797216       0.08616057      -0.05866676      -0.07288895      -0.24934725      -0.43720028       0.20639834
H        0.60973628      -0.85794498       2.57488748       0.20443983       0.05453012      -0.05323006       0.24305531       0.32078191       0.12668759
9
Properties=species:S:1:pos:R:3:momenta:R:3:forces:R:3 R1=H R2=H R3=CH3 R4=CH3 leaving_group=Cl nucleophile=Cl rxn=sn2 config=rcc label=H_H_CH3_CH3_Cl_Cl_sn2_rcc conformation=0 reactant_id=H_H_CH3_CH3_Cl_none_-_r product_id=H_H_CH3_CH3_none_Cl_sn2_pc mp2_author_energy=-29302.391748605172 mp2_my_energy=0 hash=59123 address=T id=71 energy=-17370.076156090705 pbc="F F F"
C        1.10825198       1.09682585       3.70807666      -1.18837030       0.11192094      -0.27431453       0.49786802      -1.76424028      -2.36875950
C        1.76453464       0.59331207       4.96125929       0.16972258       0.52536947       0.49343611       1.04255036       0.34688442      -0.55804155
H        1.69819661       1.31734628       5.77266395      -0.04329688       0.04931065      -0.00131964      -0.19569867       0.12536476      -0.02214975
F        3.12183095       1.19018123       2.59913601       0.85147033      -0.33796205       0.48983890      -1.00089501       0.04350634       0.88428846
Cl      -0.71744977       0.95664317       4.12288471       0.00922680       0.05800237       0.48056405      -1.03657536       0.31685164       0.18663527
H        1.20081805       0.51491762       2.73635008       0.04799347      -0.39085674       0.13628834       0.17310919       0.63734092       2.05112346
H        1.30351126       2.12023154       3.47338652       0.15132642       0.12685429      -0.16294548       0.11301954       0.41367941       0.15673251
H        2.76139873       0.61319423       4.54997458       0.20346774       0.19318715      -0.06591001       0.67983384      -0.25967988       0.28281028
H        1.50058709      -0.39045943       5.36193775       0.01806258      -0.02367770       0.12223059      -0.27321191       0.14029268      -0.61263917
9
Properties=species:S:1:pos:R:3:momenta:R:3:forces:R:3 R1=H R2=H R3=CH3 R4=CH3 leaving_group=Cl nucleophile=Cl rxn=sn2 config=rcc label=H_H_CH3_CH3_Cl_Cl_sn2_rcc conformation=0 reactant_id=H_H_CH3_CH3_Cl_none_-_r product_id=H_H_CH3_CH3_none_Cl_sn2_pc mp2_author_energy=-29302.391748605172 mp2_my_energy=0 hash=59123 address=T id=71 energy=-17370.122775133193 pbc="F F F"
C        1.20875039       0.92156049       4.14010274      -0.29147200       0.81566768       1.26571098       1.78828054      -2.32210099      -1.34336678
C        1.65343369       2.00420554       5.03993123      -0.59609049      -0.02780187      -0.85056247       0.06805090       0.55369023      -0.10864933
H        1.18398142       2.98082474       4.84141105      -0.07216420       0.02259145      -0.01354710      -0.09673640      -0.43337368       0.02032641
F        3.33247926       0.62440410       3.23875816       0.93910540      -0.35167633       0.12017276      -2.03009251       0.42793885       1.25785402
Cl      -0.69368791       0.92737199       4.29480241      -0.01277764       0.10197708       0.34006090      -0.20248374      -0.12394667       0.08951314
H        1.52556614      -0.12099133       4.41274999      -0.03485732      -0.08250227       0.11777813      -0.31066422       1.39881111      -0.00245768
H        1.46905573       1.02412773       3.10847497       0.17807945      -0.17283757       0.00068991      -0.30892726       0.40108367      -0.31912749
H        2.67638417       2.06176788       4.75539963       0.06050645      -0.03167911      -0.03537070       1.10736469       0.03402291       0.15757394
H        1.52643424       1.73266260       6.08048242       0.00295487      -0.02742847       0.01606537      -0.01479202       0.06387457       0.24833376
9
Properties=species:S:1:pos:R:3:momenta:R:3:forces:R:3 R1=H R2=H R3=CH3 R4=CH3 leaving_group=Cl nucleophile=Cl rxn=sn2 config=rcc label=H_H_CH3_CH3_Cl_Cl_sn2_rcc conformation=0 reactant_id=H_H_CH3_CH3_Cl_none_-_r product_id=H_H_CH3_CH3_none_Cl_sn2_pc mp2_author_energy=-29302.391748605172 mp2_my_energy=0 hash=59123 address=T id=71 energy=-17370.078319798587 pbc="F F F"
C        1.28171265       1.05303199       4.68661325      -0.20778055       0.41319769      -1.17295261       1.58325202      -0.18645249       1.38622805
C        1.62769961       2.23423103       3.87253365      -0.85052203      -0.57497160      -0.30289217      -0.92186827       1.38660113      -0.04150063
H        0.85786421       2.38866381       3.09179483      -0.13398230      -0.15869642      -0.03407809       0.88981270       0.27420067      -0.06113649
F        3.53189627       0.57113954       4.71327643       0.09729991       0.11997430       1.56927820      -1.34633865       0.44417144       0.08350936
Cl      -0.64926027       1.03348828       4.69849060       1.25327171       0.69783626       0.88665536       0.11016362       0.06106969       0.26803991
H        1.61533750       1.29228391       5.72477469      -0.08996237       0.23405410       0.25349372      -0.40795258      -1.01027361      -0.82533269
H        1.57992305       0.12455925       4.25970101       0.18599998      -0.16778181       0.24517738       0.05905701      -0.48493093       0.20927683
H        2.65624589       2.10741487       3.60489727      -0.12020257      -0.23415029       0.31280457       0.49889515      -0.41006100      -0.71505645
H        1.67254912       3.09394048       4.56005791       0.15816784       0.08600491      -0.13651269      -0.46502100      -0.07432490      -0.30402788
9
Properties=species:S:1:pos:R:3:momenta:R:3:forces:R:3 R1=H R2=H R3=CH3 R4=CH3 leaving_group=Cl nucleophile=Cl rxn=sn2 config=rcc label=H_H_CH3_CH3_Cl_Cl_sn2_rcc conformation=0 reactant_id=H_H_CH3_CH3_Cl_none_-_r product_id=H_H_CH3_CH3_none_Cl_sn2_pc mp2_author_energy=-29302.391748605172 mp2_my_energy=0 hash=59123 address=T id=71 energy=-17370.173759928297 pbc="F F F"
C        1.33401412       1.34101184       5.19259229      -0.01290593      -0.11328534       0.69837165       0.05126584       0.49132908       0.04736545
C        1.84584033       0.87896902       3.86108083      -0.73288567      -0.58543111       0.61782638       0.19899976       0.51335615      -0.85422963
H        1.55866750      -0.14510444       3.54452238       0.26521521      -0.31470382      -0.06725764       0.22002529       0.50289295       0.56290477
F        3.55750005       1.22923170       5.63262356       0.28483260       0.61229061       0.32853924       0.07620786       0.18286159       0.31928000
Cl      -0.60678778       1.37553811       4.93510647       0.31667022       0.66599384      -0.33060235       0.21084224       0.03818573       0.18628622
H        1.60161950       2.40866774       5.32997246       0.01324007       0.31218798      -0.10454447      -0.32193959      -0.99522486       0.28195001
H        1.47851849       0.70758843       6.06752030       0.18153771      -0.07660883      -0.00372243       0.05771527       0.29078076      -0.51276051
H        2.95325912       1.03816420       4.03043549      -0.00307428      -0.04525203       0.26211364      -0.89432705      -0.53813486      -0.31302511
H        1.42900330       1.58018248       3.10300673      -0.08898909      -0.13730308      -0.16046124       0.40121040      -0.48604654       0.28222879
9
Properties=species:S:1:pos:R:3:momenta:R:3:forces:R:3 R1=H R2=H R3=CH3 R4=CH3 leaving_group=Cl nucleophile=Cl rxn=sn2 config=rcc label=H_H_CH3_CH3_Cl_Cl_sn2_rcc conformation=0 reactant_id=H_H_CH3_CH3_Cl_none_-_r product_id=H_H_CH3_CH3_none_Cl_sn2_pc mp2_author_energy=-29302.391748605172 mp2_my_energy=0 hash=59123 address=T id=71 energy=-17370.056715089642 pbc="F F F"
C        1.37819498       1.41675548       5.44752928      -0.03345329      -0.24415046       0.59005396       2.22055568       0.61732995       0.43944579
C        1.67313441      -0.09916711       5.61009350      -0.28122060       0.41306989       0.99950302       0.39281276       0.11806995      -0.05465670
H        1.29710184      -0.58865503       6.52713844       0.41420086       0.06804616       0.09468638      -0.29753312       0.73801181      -0.27884112
F        3.53477397       1.91106454       5.97571048       0.16797435       0.04146052      -0.07103991       0.07356173      -0.22222821       0.14377445
Cl      -0.36746174       1.65471092       4.88259506       0.06179170       0.06220925      -0.52087815      -1.11364950      -0.46513530      -0.33073855
H        2.02653005       1.87570170       4.68130664       0.27106519       0.05399007      -0.14525922      -0.71799209      -0.55443067       0.50632465
H        1.44547110       2.05134930       6.33528134      -0.09619262      -0.16892630       0.03395151       0.21417836      -0.80836512      -0.29312790
H        2.79598620      -0.23043421       5.68472983      -0.18975807      -0.00999191       0.32336010      -1.35369286       0.52235966      -0.50376396
H        1.20167063      -0.61828932       4.74761356      -0.06870845       0.13353509       0.05821516       0.58175905       0.05438794       0.37158334
9
Properties=species:S:1:pos:R:3:momenta:R:3:forces:R:3 R1=H R2=H R3=CH3 R4=CH3 leaving_group=Cl nucleophile=Cl rxn=sn2 config=rcc label=H_H_CH3_CH3_Cl_Cl_sn2_rcc conformation=0 reactant_id=H_H_CH3_CH3_Cl_none_-_r product_id=H_H_CH3_CH3_none_Cl_sn2_pc mp2_author_energy=-29302.391748605172 mp2_my_energy=0 hash=59123 address=T id=71 energy=-17369.98624431132 pbc="F F F"
C        1.50508909       1.59059335       5.73788204      -0.34738938      -0.62034390       0.88329611       1.64150418      -1.28538668      -0.67150836
C        1.21656031       1.08231687       7.14149065      -0.33509877       0.65678400       0.73496096      -0.75684589       1.29791913      -0.95820601
H        0.40448497       1.63912086       7.58086105       0.02731806       0.21530112       0.09357041      -1.05302465      -0.01718544      -0.25961647
F        3.73278489       1.69724244       6.15918596       0.48782709       0.11965230      -0.09182930       0.02713547       0.16219128       0.26718678
Cl      -0.17433372       1.40170958       4.83705490       0.51737039       0.05504983      -0.29998313      -0.07996308       0.08896259       0.06900514
H        2.28114111       0.97084535       5.19133429       0.27163825      -0.12766095       0.10314956      -1.40235247       0.86489534       0.75107116
H        1.78696234       2.62016932       5.65966426      -0.20651561      -0.21895264      -0.16171380      -0.00917087       0.35899471       0.00678331
H        1.96127129       1.37952656       7.83245257      -0.10409547       0.28957777       0.12010257       1.60030289      -0.62063915       0.06100632
H        0.94238251       0.05699461       7.01483161      -0.05804994      -0.00978098       0.02155435       0.03241441      -0.84975177       0.73427814
9
Properties=species:S:1:pos:R:3:momenta:R:3:forces:R:3 R1=H R2=H R3=CH3 R4=CH3 leaving_group=Cl nucleophile=Cl rxn=sn2 config=rcc label=H_H_CH3_CH3_Cl_Cl_sn2_rcc conformation=0 reactant_id=H_H_CH3_CH3_Cl_none_-_r product_id=H_H_CH3_CH3_none_Cl_sn2_pc mp2_author_energy=-29302.391748605172 mp2_my_energy=0 hash=59123 address=T id=71 energy=-17370.03865166267 pbc="F F F"
C        1.61088123       1.35390456       6.17213572      -0.55073699      -0.33635805       0.73735972      -0.83791050      -0.63115348       0.64788190
C        1.28678100       2.65382970       6.90179002      -0.10463658       1.12772003      -0.52298991      -0.83182283      -1.34040313      -1.29829084
H        1.09263551       3.42294229       6.19803144      -0.06347377       0.10104172       0.02791913      -0.61947631       0.62042070      -1.09519804
F        3.66103131       1.54072582       7.06142332      -0.09084727      -0.34701821       0.33779244       0.93525703      -0.03252395       0.44104348
Cl      -0.04667026       1.13862739       5.15981849       1.12955366      -0.33766439       0.51576398       0.09272919      -0.32058537       0.08200778
H        1.72875217       0.39282441       6.77632617       0.11497038      -0.03500677       0.04565504      -0.27461664       1.82631190      -0.92406854
H        2.35099133       1.47346285       5.42148239      -0.14601809      -0.24869026       0.00647997       0.39543310      -0.22473899      -0.40540186