9
Properties=species:S:1:pos:R:3:momenta:R:3:forces:R:3 R1=H R2=H R3=CH3 R4=CH3 leaving_group=Cl nucleophile=Cl rxn=sn2 config=rcc label=H_H_CH3_CH3_Cl_Cl_sn2_rcc conformation=0 reactant_id=H_H_CH3_CH3_Cl_none_-_r product_id=H_H_CH3_CH3_none_Cl_sn2_pc mp2_author_energy=-29302.391748605172 mp2_my_energy=0 hash=59123 address=T id=71 energy=-17370.412368016237 pbc="F F F"
C        0.12542541       0.11270554      -0.00029240       0.45495260      -0.37167282       0.67574146      -0.09214561       1.11788396      -0.00082481
C        1.62503867       0.00847468       0.00156754      -0.09742444      -0.16598303      -0.02848893      -0.06338950      -0.85342640       0.00215309
H        1.99473018      -0.50605055       0.89354482       0.04588881      -0.08323927      -0.38997896       0.00320508       0.00300841       0.00517082
F        0.89788639       2.64149152      -0.00442372      -0.20338107       0.29074307      -0.47249960      -0.23271315      -0.10403772      -0.00076135
Cl      -0.69504884      -1.53494042       0.00509220       0.04737379      -0.43201423      -0.09577157       0.38207948      -0.16174994      -0.00050876
H       -0.22306082       0.64592326      -0.87549887      -0.05730166      -0.24480406       0.15561399      -0.00302890      -0.00293595      -0.00472561
H       -0.22431889       0.65275656       0.87018381       0.02065224      -0.13686903      -0.19097567      -0.00396382      -0.00350204       0.00469305
H        1.88822962       1.08069343      -0.00059746      -0.19776225       0.13578816      -0.04592455       0.00778691       0.00253743      -0.00033365
H        1.99700981      -0.51031959      -0.88698835      -0.00432725       0.08950185       0.08723840       0.00216950       0.00222225      -0.00486279
9
Properties=species:S:1:pos:R:3:momenta:R:3:forces:R:3 R1=H R2=H R3=CH3 R4=CH3 leaving_group=Cl nucleophile=Cl rxn=sn2 config=rcc label=H_H_CH3_CH3_Cl_Cl_sn2_rcc conformation=0 reactant_id=H_H_CH3_CH3_Cl_none_-_r product_id=H_H_CH3_CH3_none_Cl_sn2_pc mp2_author_energy=-29302.391748605172 mp2_my_energy=0 hash=59123 address=T id=71 energy=-17370.264042768205 pbc="F F F"
C        0.19933510      -0.28712132      -0.01726041       0.33515294      -0.51253210       0.40820289       0.24741488      -2.54404983       0.42911207
C        1.34927776      -0.35056961      -0.94856668      -0.15784469       0.92892061      -0.71698604       0.20397047       0.07436769      -0.10619303
H        2.19813633      -0.97681877      -0.60418756       0.29300767       0.02929503       0.06395464      -0.44064174       0.69557184       0.10902375
F        0.24347448       2.30266486      -0.40489453      -0.21259057      -0.77200468      -0.43418822       0.16565178       0.53062819      -0.12874737
Cl      -0.24005181      -2.06933023       0.29046967      -0.08635454      -0.99400742       0.50488980      -0.24199775       0.28792235       0.15665965
H       -0.60454988       0.28403222      -0.36466865       0.05381138      -0.05135092      -0.05521531      -1.21773750       0.39982163      -0.99286143
H        0.40077763       0.16666675       0.91094806       0.05236280       0.16041056      -0.04510780       0.64120163       0.23525995       1.19272975
H        1.49291286       0.72520845      -1.01528402      -0.15109024      -0.04384746       0.01465274       0.72546224       0.33649403      -0.28757812
H        1.02422075      -0.76319879      -1.89593944      -0.11462256       0.00165936      -0.15646922      -0.08332402      -0.01601586      -0.37214527
9
Properties=species:S:1:pos:R:3:momenta:R:3:forces:R:3 R1=H R2=H R3=CH3 R4=CH3 leaving_group=Cl nucleophile=Cl rxn=sn2 config=rcc label=H_H_CH3_CH3_Cl_Cl_sn2_rcc conformation=0 reactant_id=H_H_CH3_CH3_Cl_none_-_r product_id=H_H_CH3_CH3_none_Cl_sn2_pc mp2_author_energy=-29302.391748605172 mp2_my_energy=0 hash=59123 address=T id=71 energy=-17370.200799653103 pbc="F F F"
C        0.24339239      -0.78721864      -0.15347945      -0.43680697      -0.17076825      -0.86214258       0.32135009       0.85240577      -0.41257864
C        0.45977373      -0.99805899      -1.61542269      -0.03142353      -1.15105002      -0.07344891      -1.86255938       0.37684328       0.01544126
H        1.47258140      -1.33655684      -1.83068129      -0.23616231       0.01281442      -0.27702770      -0.09223218       0.09114904      -0.14396526
F       -0.36352093       1.73454031      -0.82989571      -0.32477239      -0.79235012       0.10946871       0.53035000      -2.07016821       0.43895489
Cl       0.46535142      -2.49202415       0.45515108       1.31993908      -0.26468102       0.49430350      -0.02662892      -0.46779192       0.84709411
H       -0.70603387      -0.39862150       0.12823475      -0.35607148      -0.12616317       0.12810104      -0.68337884       0.10155072      -0.09402548
H        0.98780522      -0.18699163       0.31623843       0.12113495       0.26288058      -0.19071877       0.46799983       0.49602960       0.18350885
H        0.19024017       0.02209963      -1.92696319       0.01357850       0.12872754      -0.00517977       0.39079430      -0.03806389      -0.58603398
H       -0.32713751      -1.74311600      -1.92462208      -0.05193948       0.24920963       0.06181074       0.95430510       0.65804561      -0.24839575
9
Properties=species:S:1:pos:R:3:momenta:R:3:forces:R:3 R1=H R2=H R3=CH3 R4=CH3 leaving_group=Cl nucleophile=Cl rxn=sn2 config=rcc label=H_H_CH3_CH3_Cl_Cl_sn2_rcc conformation=0 reactant_id=H_H_CH3_CH3_Cl_none_-_r product_id=H_H_CH3_CH3_none_Cl_sn2_pc mp2_author_energy=-29302.391748605172 mp2_my_energy=0 hash=59123 address=T id=71 energy=-17370.279344522343 pbc="F F F"
C        0.22018034      -1.24761664      -0.41920519      -0.13921599       0.00191391       0.46474594      -0.80945180       1.14186402       0.91106218
C       -0.37032785      -1.82674961      -1.64718841       0.22794781       0.07129306       0.45138698       0.51507270       1.25158586      -0.95973621
H        0.37170964      -2.28444603      -2.28334359      -0.01436816      -0.05452860       0.03797020       0.45086628      -0.04698680      -0.37134198
F       -0.90907756       0.97936360      -1.20118044      -0.17410671      -0.46712998      -0.43383783       0.35092694      -0.78614079       0.17789435
Cl       1.13599242      -2.68104130       0.40627002       0.15883214      -0.04535334      -1.10235004       0.07982970      -0.20548286       0.36996268
H       -0.61821712      -0.89604151       0.22450756      -0.16014492      -0.06938923       0.03531033       1.10491008      -0.16439129      -0.24819798
H        0.97172004      -0.45638388      -0.55568399       0.19970213       0.04351965      -0.02938124      -0.66005705      -0.43042224      -0.11836416
H       -0.75293741      -0.87434252      -2.06938607      -0.09892936      -0.23243508      -0.00730067      -0.31127236      -0.48760662      -0.15898753
H       -1.11552828      -2.57217896      -1.47012235       0.01003191      -0.28064706       0.24048325      -0.72082449      -0.27241927       0.39770866
9
Properties=species:S:1:pos:R:3:momenta:R:3:forces:R:3 R1=H R2=H R3=CH3 R4=CH3 leaving_group=Cl nucleophile=Cl rxn=sn2 config=rcc label=H_H_CH3_CH3_Cl_Cl_sn2_rcc conformation=0 reactant_id=H_H_CH3_CH3_Cl_none_-_r product_id=H_H_CH3_CH3_none_Cl_sn2_pc mp2_author_energy=-29302.391748605172 mp2_my_energy=0 hash=59123 address=T id=71 energy=-17369.891014957364 pbc="F F F"
C        0.07916684      -1.73413573      -0.55814478      -0.35005747      -0.10489587      -0.59302277       0.88292704       2.81503050      -1.36344742
C       -0.97831075      -2.66027751      -0.93161291      -0.07248319      -0.61179187       0.59148600      -0.55878154      -1.07530035       0.22351861
H       -0.71992484      -3.40667839      -1.74445559      -0.19169541       0.18219993      -0.00969292      -0.25860513       0.87887878       1.07612010
F       -1.49085863      -0.06833581      -1.75241171       0.09870090      -1.18121473      -0.33363450       0.44497231      -0.50555402       0.51873625
Cl       1.78125444      -2.82114426       0.03799197       1.06673682       0.00965261      -0.39047139      -0.83480736       0.16370523      -0.02920804
H       -0.18411912      -1.03195350       0.28283825      -0.06414705      -0.23023980      -0.02260284       0.52280717      -0.96292817      -0.94596352
H        0.41101678      -1.15947078      -1.46875619      -0.16579966      -0.02404610       0.00708474      -0.10940924      -0.51423994       1.39763432
H       -1.62684073      -1.81895141      -1.29246479      -0.32163818       0.18989303       0.18611386      -0.12720959      -0.36836602      -0.36587859
H       -1.41261102      -3.09768789      -0.01815439       0.01729378      -0.02099446      -0.03018709       0.03810634      -0.43122601      -0.51151171
9
Properties=species:S:1:pos:R:3:momenta:R:3:forces:R:3 R1=H R2=H R3=CH3 R4=CH3 leaving_group=Cl nucleophile=Cl rxn=sn2 config=rcc label=H_H_CH3_CH3_Cl_Cl_sn2_rcc conformation=0 reactant_id=H_H_CH3_CH3_Cl_none_-_r product_id=H_H_CH3_CH3_none_Cl_sn2_pc mp2_author_energy=-29302.391748605172 mp2_my_energy=0 hash=59123 address=T id=71 energy=-17369.818331431015 pbc="F F F"
C       -0.02410535      -2.21507644      -0.96860912      -0.84135961       0.09777662      -0.33695670       1.02024734       0.93681986      -0.77084493
C       -0.80271906      -2.95899411       0.05384155       1.28281712       0.18140145       0.31404312      -1.13559807       1.67087322      -1.34558731
H       -0.51133081      -3.94219870      -0.04209074      -0.11885431      -0.40446209       0.19509021       0.55925460      -2.33762532       0.11639169
F       -2.18118787      -1.71241631      -2.13610000      -0.40966361      -1.38981321      -0.45889622      -0.67053441       0.19972762      -0.24774152
Cl       2.11859881      -3.02971973      -0.48498884      -0.21955486      -0.48975344      -0.44580946      -0.01273574      -0.02490889       0.16399286
H        0.32071985      -1.18437322      -0.84216347      -0.00774598      -0.00603757       0.18721549      -0.41682885      -0.64744518       0.32379831
H       -0.08159934      -2.46063496      -2.03299514      -0.11728079      -0.00592304      -0.08673894      -0.22011840      -0.27836667       0.81746015
H       -1.86924852      -2.86599744      -0.24940981       0.25663750      -0.00022731      -0.02736539       0.71818714       0.16655715       0.17648306
H       -0.63221549      -2.60157369       1.04302917       0.19382383       0.02339431      -0.00266094       0.15812637       0.31436820       0.76604769
9
Properties=species:S:1:pos:R:3:momenta:R:3:forces:R:3 R1=H R2=H R3=CH3 R4=CH3 leaving_group=Cl nucleophile=Cl rxn=sn2 config=rcc label=H_H_CH3_CH3_Cl_Cl_sn2_rcc conformation=0 reactant_id=H_H_CH3_CH3_Cl_none_-_r product_id=H_H_CH3_CH3_none_Cl_sn2_pc mp2_author_energy=-29302.391748605172 mp2_my_energy=0 hash=59123 address=T id=71 energy=-17369.988684759737 pbc="F F F"
C       -0.27989251      -2.74328349      -1.29066992       0.15086906       0.62759183      -1.01627442      -1.20648321      -0.35609666       0.10606912
C       -0.80639660      -2.81669949       0.13277313      -0.32836250      -0.22513490      -0.18322457       0.80148960      -2.83844469      -0.22561025
H       -0.54635037      -3.82863452       0.62493843       0.45980812      -0.04249985      -0.09688936       0.16523045       1.59699556      -0.68438803
F       -2.60333127      -3.28394899      -2.06916516       0.52272428      -1.97139980       0.78670665       0.81890501       0.25222348       0.42485221
Cl       2.48452070      -3.28498367      -0.84959022      -0.52766331      -0.94682290      -0.30844007      -0.22095708       0.16836621       0.12339725
H       -0.21964765      -1.73701768      -1.65273997      -0.17615017       0.09071705      -0.12466052       0.36028416       0.49929755       0.08439357
H       -1.00932879      -3.22304178      -1.95291911      -0.14976729       0.09123426      -0.06252301       0.01255533      -0.44286767       0.03517206
H       -1.86271212      -2.95931462      -0.03157543       0.23377501      -0.01800606       0.35761211      -0.85297019       0.70980561      -0.12290896
H       -0.54222738      -1.99982157       0.77158215      -0.16410267       0.15583359      -0.09569654       0.12194592       0.41072060       0.25902302
9
Properties=species:S:1:pos:R:3:momenta:R:3:forces:R:3 R1=H R2=H R3=CH3 R4=CH3 leaving_group=Cl nucleophile=Cl rxn=sn2 config=rcc label=H_H_CH3_CH3_Cl_Cl_sn2_rcc conformation=0 reactant_id=H_H_CH3_CH3_Cl_none_-_r product_id=H_H_CH3_CH3_none_Cl_sn2_pc mp2_author_energy=-29302.391748605172 mp2_my_energy=0 hash=59123 address=T id=71 energy=-17370.20941484487 pbc="F F F"
C       -0.29992059      -4.40079110      -1.20909975      -0.05923739       0.00560189      -0.90857336      -1.07914815       0.54952001       0.67013357
C       -0.62222930      -3.05455070      -0.57975741      -0.73223930       0.70660605      -0.31323813       0.34728059       1.65691605      -1.00077788
H       -0.79811769      -2.32078123      -1.45315833      -0.03903744      -0.03683535      -0.07293246       0.52197651      -1.04021090       1.10922898
F       -2.66489205      -4.70585816      -1.60063796      -0.29004755      -2.05717509       0.93054978      -0.41883649      -0.24893009      -0.01007405
Cl       2.44917981      -3.30745548      -1.31901888       0.32460090      -0.73578460      -0.22544254       0.05185326      -0.09051845       0.07308321
H        0.43020566      -4.56988087      -1.98127710       0.27125997      -0.05865597       0.09961395      -0.13408342       0.61159319       0.20873643
H       -1.39939816      -4.72107857      -1.48990398       0.04660653       0.18577112      -0.23805140       0.65239512      -0.10684953      -0.04011600
H        0.13696827      -2.61383897       0.10771100       0.33135871       0.08186379      -0.04823282      -0.39527548      -0.66506943      -0.76706406
H       -1.59572110      -3.04343650      -0.05923705       0.16504750      -0.03128911       0.13207725       0.45383805      -0.66645085      -0.24315019
9
Properties=species:S:1:pos:R:3:momenta:R:3:forces:R:3 R1=H R2=H R3=CH3 R4=CH3 leaving_group=Cl nucleophile=Cl rxn=sn2 config=rcc label=H_H_CH3_CH3_Cl_Cl_sn2_rcc conformation=0 reactant_id=H_H_CH3_CH3_Cl_none_-_r product_id=H_H_CH3_CH3_none_Cl_sn2_pc mp2_author_energy=-29302.391748605172 mp2_my_energy=0 hash=59123 address=T id=71 energy=-17370.414401278744 pbc="F F F"
C       -0.34089489      -4.80472729      -1.04477089       0.83979241      -1.53863349      -0.05296310      -0.98102445       0.45101212       0.01692414
C       -0.94419420      -3.46311103      -1.42932890      -0.50720656      -0.96131306      -0.77106296       0.79386592      -1.29498734       0.29064835
H       -1.51903185      -3.74810677      -2.32032740      -0.04762667      -0.13122613      -0.02077089      -0.29334406       0.44846469       0.27551693
F       -2.47631109      -5.87399384      -1.00378314       1.18887071       0.87045292       0.69065699       0.11722876      -0.19575118      -0.01472894
Cl       2.50102980      -3.47570930      -1.72017983      -1.55225242      -0.11171395      -0.08379506      -0.44882192      -0.30364190       0.17927871
H        0.44922963      -5.13086866      -1.66784637      -0.07654902      -0.05135396      -0.01896451       0.40229505      -0.01060943      -0.34196373
H       -1.26297940      -5.51160500      -1.04119388      -0.00300271       0.10017408      -0.25159700       0.13785535       0.16901400       0.40921041
H       -0.05815997      -2.93837155      -1.73179057       0.27061938      -0.01643097      -0.12276253       0.04016211       1.04697875      -0.09548166
H       -1.50442210      -2.98638037      -0.59408785      -0.09650906       0.13065099       0.06357840       0.23178324      -0.31047972      -0.71940420
9
Properties=species:S:1:pos:R:3:momenta:R:3:forces:R:3 R1=H R2=H R3=CH3 R4=CH3 leaving_group=Cl nucleophile=Cl rxn=sn2 config=rcc label=H_H_CH3_CH3_Cl_Cl_sn2_rcc conformation=0 reactant_id=H_H_CH3_CH3_Cl_none_-_r product_id=H_H_CH3_CH3_none_Cl_sn2_pc mp2_author_energy=-29302.391748605172 mp2_my_energy=0 hash=59123 address=T id=71 energy=-17370.436982980584 pbc="F F F"
C       -0.49663733      -4.90344560      -1.17196255      -0.32040523      -0.72334737       0.13092510       0.78620182      -0.17798050      -0.43919880
C       -1.15051094      -4.50588410      -2.44760669       0.70567439      -1.26001381       0.16008373      -1.77869883      -0.93123266       0.62644256
H       -0.64737106      -4.76990371      -3.34617439      -0.07387413       0.18743372      -0.27790125       0.82711409      -0.34649991      -0.48583931
F       -1.93912103      -6.54257087      -0.34193423       0.00739284      -0.07342525       0.09712942      -0.44848729      -0.14614413       0.24041578
Cl       2.37195659      -3.67046722      -1.95299462      -0.27811938       0.16603770      -0.69300659       0.36643879       0.28510520      -0.10203035
H        0.54074289      -5.20291140      -1.28039804       0.07614280       0.11881712      -0.01687773      -0.54398940      -0.13439169       0.42798079
H       -1.21062699      -5.60951519      -0.60814579      -0.10793111       0.12959647       0.02235974       0.44633280      -0.12225720      -0.17291877
H       -1.33932029      -3.47586718      -2.46303808      -0.05394311       0.02493553       0.01387328       0.03041263       1.76849251      -0.09874192
H       -2.16334747      -4.93164541      -2.49166003       0.05760801       0.10098727       0.12206746       0.31467539      -0.19509161       0.00389002
9
Properties=species:S:1:pos:R:3:momenta:R:3:forces:R:3 R1=H R2=H R3=CH3 R4=CH3 leaving_group=Cl nucleophile=Cl rxn=sn2 config=rcc label=H_H_CH3_CH3_Cl_Cl_sn2_rcc conformation=0 reactant_id=H_H_CH3_CH3_Cl_none_-_r product_id=H_H_CH3_CH3_none_Cl_sn2_pc mp2_author_energy=-29302.391748605172 mp2_my_energy=0 hash=59123 address=T id=71 energy=-17370.6634886797 pbc="F F F"
C       -0.66986135      -5.41079519      -1.26406339      -0.95941640      -0.36975115       0.50376447      -0.49572515      -0.06156124       0.01376847
C       -0.85634571      -6.04514866      -2.61376864       0.48702861      -0.70689883      -1.02605629      -0.98241872       0.41197618       0.36726539
H       -0.31312663      -5.53243588      -3.39643027       0.03135212      -0.08072242       0.19220564       0.36800156       0.10736647      -0.00656888
F       -1.79730340      -6.99409380       0.00203277       0.42772187      -0.92026493       0.87550494      -0.03403123       0.55285434      -0.04516838
Cl       2.23502569      -3.66781945      -2.41090290       0.11946925      -0.33387911      -0.74035221      -0.47737665      -0.22021211       0.15101670
H        0.34198477      -5.19522154      -1.02658497      -0.21442640       0.15004330      -0.34008982       0.47270223       0.06077779       0.26291229
H       -1.33238394      -5.90760416      -0.43834791      -0.11775789       0.24712796      -0.14722652       0.69662300      -0.34537337      -0.80733855
H       -1.91889341      -6.03174395      -2.90801324       0.05216542       0.02913246      -0.02135118       0.25082389      -0.10595623       0.11651602
H       -0.53193379      -7.07091916      -2.52448714       0.18872791       0.41052427       0.18065518       0.20140108      -0.39987182      -0.05240306
9
Properties=species:S:1:pos:R:3:momenta:R:3:forces:R:3 R1=H R2=H R3=CH3 R4=CH3 leaving_group=Cl nucleophile=Cl rxn=sn2 config=rcc label=H_H_CH3_CH3_Cl_Cl_sn2_rcc conformation=0 reactant_id=H_H_CH3_CH3_Cl_none_-_r product_id=H_H_CH3_CH3_none_Cl_sn2_pc mp2_author_energy=-29302.391748605172 mp2_my_energy=0 hash=59123 address=T id=71 energy=-17370.57805025855 pbc="F F F"
C       -0.09872260      -6.33908798      -1.22362536       0.45322816       0.41260008      -0.74076801       1.12514959       0.55652161      -1.60471696
C        0.02638930      -7.19410022      -2.45419446      -0.19358885      -0.45435792       0.92339241       0.51738847      -0.05588443       0.35315565
H        0.90499827      -6.85838115      -3.04999734      -0.09658221      -0.06959127       0.12028148      -0.90481386       0.19345073       0.17305368
F       -1.68224426      -7.33985026       0.08542690       0.38674458      -0.88766288      -0.37987559      -0.83338264      -0.83748778       0.61671931
Cl       1.57755408      -3.93431460      -2.98054664      -0.54739461      -0.38285932      -0.41296365       0.14214482       0.10858712       0.00141633
H        0.87990574      -6.18027815      -0.80207737       0.28929727       0.21338378      -0.13475067      -0.21777309       0.13102188       0.46644677
H       -0.91657097      -6.76544257      -0.55953718      -0.19743032       0.12589570       0.04618654       0.34570305       0.26687733      -0.00423464
H       -0.90542698      -7.16061182      -3.05825505       0.15020448      -0.28108466       0.03003700       0.68227135      -0.46747121       0.35701343
H        0.34722607      -8.16956050      -2.03412858      -0.23097415      -0.10692238       0.07336610      -0.85668769       0.10438474      -0.35885356
9
Properties=species:S:1:pos:R:3:momenta:R:3:forces:R:3 R1=H R2=H R3=CH3 R4=CH3 leaving_group=Cl nucleophile=Cl rxn=sn2 config=rcc label=H_H_CH3_CH3_Cl_Cl_sn2_rcc conformation=0 reactant_id=H_H_CH3_CH3_Cl_none_-_r product_id=H_H_CH3_CH3_none_Cl_sn2_pc mp2_author_energy=-29302.391748605172 mp2_my_energy=0 hash=59123 address=T id=71 energy=-17370.629821020786 pbc="F F F"
C       -0.17083456      -6.63963168      -1.50834490       0.62690426       0.41803858      -0.20300171      -1.19751081      -0.55170931       1.51940996
C        0.61111381      -7.80343516      -1.95948107       0.91684831      -0.20148479      -0.27318980       2.10389234      -0.88941226      -0.24073047
H        1.54426352      -7.54505086      -2.54593214       0.05490896       0.06640420       0.12579208      -1.13271946      -0.05408499       0.72129443
F       -1.38897177      -7.87356072       0.06393129      -0.42660445      -0.21948728       0.42152187       0.43153731       0.83789654      -0.70339841
Cl       1.20959000      -4.23000469      -3.39337360      -0.92206352      -0.94915525      -0.31054286       0.24157896       0.23934382      -0.28459373
H        0.36620951      -5.73681236      -1.23719886      -0.17403780      -0.03355840       0.10737459      -0.13215494      -0.52256958      -0.08035137
H       -0.94743298      -7.01580167      -0.74613672      -0.09441631       0.00788501      -0.11846112       0.18827804      -0.11688086      -0.05817873
H        0.03696209      -8.49652028      -2.58047225      -0.00927996       0.04625552       0.07012263      -0.16828862       0.17273208      -0.03651166
H        0.93032394      -8.41072692      -1.05498411       0.03885020      -0.31181582      -0.21046406      -0.33461282       0.88468456      -0.83694001
9
Properties=species:S:1:pos:R:3:momenta:R:3:forces:R:3 R1=H R2=H R3=CH3 R4=CH3 leaving_group=Cl nucleophile=Cl rxn=sn2 config=rcc label=H_H_CH3_CH3_Cl_Cl_sn2_rcc conformation=0 reactant_id=H_H_CH3_CH3_Cl_none_-_r product_id=H_H_CH3_CH3_none_Cl_sn2_pc mp2_author_energy=-29302.391748605172 mp2_my_energy=0 hash=59123 address=T id=71 energy=-17370.509127780202 pbc="F F F"
C       -0.25286583      -7.49549400      -1.81872174       0.70277464      -0.37525879       0.31184384       0.65660159      -0.65285189      -0.06727166
C        1.21705719      -7.55524667      -1.68643642      -0.24488001      -0.00766491       0.30746964       0.74605493      -0.61466197       0.22082147
H        1.74369214      -6.79218750      -2.31561619       0.10002222      -0.06871653       0.02636869      -0.53240761      -0.93060168       0.39160799
F       -0.93564178      -8.55875865       0.14102057       0.00404028      -0.86010159       0.27637799       0.38962752       0.18409516      -1.02191339
Cl       0.76145906      -4.90271283      -3.84820314      -0.74674668       0.05745867      -1.61728107      -0.16385589       0.07593313      -0.17402827
H       -0.72210050      -6.57968874      -1.90023922       0.09284679      -0.12673511      -0.26801754      -0.60269414       1.72791431      -0.23540994
H       -0.68363510      -8.13440937      -1.02855004       0.04293490      -0.06064363       0.19195746      -0.69160438      -0.62385203       1.23498413
H        1.48984818      -8.60376527      -1.95242046       0.16386092      -0.15236530      -0.07940912       0.45322648       0.84233949       0.01870870
H        1.49204123      -7.38458028      -0.62669370      -0.09864636      -0.12284905       0.28052451      -0.25494850      -0.00831452      -0.36749903
9
Properties=species:S:1:pos:R:3:momenta:R:3:forces:R:3 R1=H R2=H R3=CH3 R4=CH3 leaving_group=Cl nucleophile=Cl rxn=sn2 config=rcc label=H_H_CH3_CH3_Cl_Cl_sn2_rcc conformation=0 reactant_id=H_H_CH3_CH3_Cl_none_-_r product_id=H_H_CH3_CH3_none_Cl_sn2_pc mp2_author_energy=-29302.391748605172 mp2_my_energy=0 hash=59123 address=T id=71 energy=-17370.627960479516 pbc="F F F"
C        0.05735890      -7.90400766      -1.74022755       0.13569911      -0.59328058       0.21455827       0.49098800       1.58330891      -1.68872638
C        1.39936828      -7.51068426      -1.28282992      -0.50959904       0.96333449      -0.96556510       0.56512162       1.09294979      -0.85061103
H        1.91048889      -6.76218591      -1.93630155       0.22594893       0.08015518      -0.19076365      -0.87370471      -0.16696557       0.55698667
F       -0.40725836      -9.34536654      -0.02540669       0.52623537      -0.33899781      -0.24829604      -0.36316566      -0.62734269       0.95480955
Cl       0.29551045      -5.55457432      -4.36474966      -0.05960466      -1.84697961       0.81545827      -0.03979235      -0.25415393       0.27964774
H       -0.56435310      -7.05440930      -1.94173512      -0.14210077       0.15202560      -0.01265465      -0.17304274       0.00926137      -0.10972574
H       -0.31701680      -8.54073789      -0.91441428       0.26886798      -0.15440234      -0.12571383      -0.34251787      -0.90496520       0.29725359
H        2.10271973      -8.31060438      -1.24757678      -0.24053991       0.01281853      -0.00199362       0.28732736      -1.01082781       0.38650547
H        1.14724875      -7.12693919      -0.30179356      -0.18970719       0.11511433      -0.01977268       0.44878634       0.27873513       0.17386016
9
Properties=species:S:1:pos:R:3:momenta:R:3:forces:R:3 R1=H R2=H R3=CH3 R4=CH3 leaving_group=Cl nucleophile=Cl rxn=sn2 config=rcc label=H_H_CH3_CH3_Cl_Cl_sn2_rcc conformation=0 reactant_id=H_H_CH3_CH3_Cl_none_-_r product_id=H_H_CH3_CH3_none_Cl_sn2_pc mp2_author_energy=-29302.391748605172 mp2_my_energy=0 hash=59123 address=T id=71 energy=-17370.594921954267 pbc="F F F"
C        0.51269441      -8.29270895      -1.79173884      -0.39318583      -0.21460989      -0.84852966      -0.60566163       2.64039702      -2.13975487
C        1.15590135      -7.20375297      -0.95639259      -0.37306472      -0.48056137       0.57753734      -1.12364494      -1.18003138       1.11600095
H        1.36443294      -6.29001045      -1.45621642      -0.10349869       0.08515390      -0.05331156       0.19549518       0.64103564      -0.78190603
F        0.25253222      -9.93312500      -0.23352235       0.89578665       0.15539533       0.24544945      -0.22811841      -1.12498787       1.14422009
Cl      -0.10801784      -6.33641315      -4.74318504      -0.34274599      -0.53822210      -0.66066664       0.13777098      -0.30120213       0.52925511
H       -0.34905885      -8.07732245      -2.44808596       0.03262740      -0.24204240      -0.07338387       0.89573342       0.20216709       0.67162816
H        0.32427402      -9.14244143      -1.10319774       0.20046777       0.04457264       0.22738081       0.08846682      -0.77719292       0.37480341
H        2.06397930      -7.63302047      -0.53639850      -0.12945060      -0.13479625       0.14865985       0.25483400       0.23031699       0.00816085
H        0.48331547      -6.97279136      -0.08263053       0.22621111      -0.06764290      -0.02566171       0.38512458      -0.33050245      -0.92240767
9
Properties=species:S:1:pos:R:3:momenta:R:3:forces:R:3 R1=H R2=H R3=CH3 R4=CH3 leaving_group=Cl nucleophile=Cl rxn=sn2 config=rcc label=H_H_CH3_CH3_Cl_Cl_sn2_rcc conformation=0 reactant_id=H_H_CH3_CH3_Cl_none_-_r product_id=H_H_CH3_CH3_none_Cl_sn2_pc mp2_author_energy=-29302.391748605172 mp2_my_energy=0 hash=59123 address=T id=71 energy=-17370.54736449972 pbc="F F F"
C        0.79705657      -8.50301114      -1.95309016       0.68195541      -0.36466344       0.06698222       0.86709149      -0.86848397       0.28898995
C        0.38466544      -7.37047439      -1.17815233      -0.33229981      -0.27883996       0.28331923       1.22214025       0.20862731       3.68349931
H        0.24441627      -6.51792771      -1.77817733       0.02552238      -0.09303771      -0.07648166      -0.40500561       1.13468183      -0.72138697
F        1.10457483     -10.21575186      -0.41768639       0.91095266      -0.78122237       0.33182705       0.04468773       0.54761799      -0.11236815
Cl      -0.33822679      -7.10174491      -4.84577936      -1.02881345      -0.89488116      -1.58498341      -0.01458947       0.09516996      -0.14156393
H        0.09404729      -8.80978274      -2.65016685       0.05054691       0.30797321       0.12528339      -1.02264912      -0.52993792      -1.41100871
H        1.05916157      -9.29814365      -1.21214359      -0.22343252       0.36924640       0.23568102       0.10732262      -0.79095144       0.16146603