9
Properties=species:S:1:pos:R:3:momenta:R:3:forces:R:3 R1=H R2=H R3=CH3 R4=CH3 leaving_group=Cl nucleophile=Cl rxn=sn2 config=rcc label=H_H_CH3_CH3_Cl_Cl_sn2_rcc conformation=0 reactant_id=H_H_CH3_CH3_Cl_none_-_r product_id=H_H_CH3_CH3_none_Cl_sn2_pc mp2_author_energy=-29302.391748605172 mp2_my_energy=0 hash=59123 address=T id=71 energy=-17370.412368016237 pbc="F F F"
C        0.12542541       0.11270554      -0.00029240       0.28885016      -0.13677442       0.48804507      -0.09214561       1.11788396      -0.00082481
C        1.62503867       0.00847468       0.00156754      -0.04768564      -0.08278674       0.45088205      -0.06338950      -0.85342640       0.00215309
H        1.99473018      -0.50605055       0.89354482       0.11204516      -0.05279379      -0.06352225       0.00320508       0.00300841       0.00517082
F        0.89788639       2.64149152      -0.00442372       1.22267125      -0.15674615       0.01830365      -0.23271315      -0.10403772      -0.00076135
Cl      -0.69504884      -1.53494042       0.00509220      -0.59170388      -0.72008052       0.28622337       0.38207948      -0.16174994      -0.00050876
H       -0.22306082       0.64592326      -0.87549887       0.11011481       0.21926501       0.01222731      -0.00302890      -0.00293595      -0.00472561
H       -0.22431889       0.65275656       0.87018381       0.25844054      -0.33284552       0.06368967      -0.00396382      -0.00350204       0.00469305
H        1.88822962       1.08069343      -0.00059746       0.03000090      -0.16328250       0.07869164       0.00778691       0.00253743      -0.00033365
H        1.99700981      -0.51031959      -0.88698835       0.11590844      -0.01125690       0.31914004       0.00216950       0.00222225      -0.00486279
9
Properties=species:S:1:pos:R:3:momenta:R:3:forces:R:3 R1=H R2=H R3=CH3 R4=CH3 leaving_group=Cl nucleophile=Cl rxn=sn2 config=rcc label=H_H_CH3_CH3_Cl_Cl_sn2_rcc conformation=0 reactant_id=H_H_CH3_CH3_Cl_none_-_r product_id=H_H_CH3_CH3_none_Cl_sn2_pc mp2_author_energy=-29302.391748605172 mp2_my_energy=0 hash=59123 address=T id=71 energy=-17370.342090345013 pbc="F F F"
C        0.74754524      -0.34193085       0.66769973      -0.04694708      -1.21910584      -0.01386395      -1.64027642      -0.61395944       0.27329779
C        1.86334363      -1.15111789       1.17697241       0.70134581       0.04151305       0.64301259       1.72436462       0.18614795       0.66169758
H        1.59283401      -1.57428900       2.13998569      -0.05228110       0.02544948       0.11250058       0.02786123      -0.43364911       0.07346329
F        2.48757785       1.60030188       0.48549624       1.75034492      -1.18724759       0.61269601       0.66335913       0.64814327       0.07884095
Cl      -0.64717092      -1.50784918       0.36207679      -0.42169008       0.42840072       0.68888905      -0.19030613      -0.04990888      -0.02363595
H        0.98896605       0.20626183      -0.20254374       0.07082481       0.15009174       0.03798008       0.16350582       0.36475448      -0.88728335
H        0.39643667       0.37775938       1.40936695      -0.13296844      -0.30306596       0.01239324       0.18306890      -0.23163812      -0.17834175
H        2.63402441      -0.36622180       1.35421654       0.01050168       0.22142754       0.06749254      -0.31471089      -0.35302348      -0.25261376
H        2.28997528      -1.92658626       0.50368771       0.11995635      -0.07472630       0.04479802      -0.61686626       0.48313333       0.25457520
9
Properties=species:S:1:pos:R:3:momenta:R:3:forces:R:3 R1=H R2=H R3=CH3 R4=CH3 leaving_group=Cl nucleophile=Cl rxn=sn2 config=rcc label=H_H_CH3_CH3_Cl_Cl_sn2_rcc conformation=0 reactant_id=H_H_CH3_CH3_Cl_none_-_r product_id=H_H_CH3_CH3_none_Cl_sn2_pc mp2_author_energy=-29302.391748605172 mp2_my_energy=0 hash=59123 address=T id=71 energy=-17370.19758136322 pbc="F F F"
C        1.63874486      -1.03579713       1.32499224       0.89708034      -1.19159144      -0.01408639      -0.30850309       0.44448385       1.86228408
C        1.85203826      -2.01276446       2.47712389      -0.10739142      -0.71758026       0.97956989      -0.00753574       0.20403555      -1.39511553
H        1.20120704      -1.71918261       3.27856431       0.02634526       0.02572075      -0.14287836      -0.38366894       0.08737074       0.46242249
F        4.26371313      -0.72358769       1.42205211       0.43545648      -1.97700738       0.97866325      -0.58172326      -0.03301325       0.09787172
Cl      -0.17784645      -1.30566336       1.00453765       1.70535550       0.95695857       1.43669813       0.04532223       0.61156869      -0.14341190
H        2.12402594      -1.11830085       0.38625616       0.09062713       0.04239330      -0.04580200       0.70223177      -0.60166980      -0.31837947
H        1.89319931      -0.04965766       1.76201332       0.06459741       0.22295715      -0.06818739      -0.60044583      -0.33294231      -0.71038163
H        2.87151691      -1.86835339       2.74724209       0.00849903      -0.01923837      -0.14369243       1.02354511      -0.06868754       0.09542046
H        1.61681577      -3.02513872       2.17259818      -0.20342032      -0.14036121       0.23865219       0.11077776      -0.31114591       0.04928980
9
Properties=species:S:1:pos:R:3:momenta:R:3:forces:R:3 R1=H R2=H R3=CH3 R4=CH3 leaving_group=Cl nucleophile=Cl rxn=sn2 config=rcc label=H_H_CH3_CH3_Cl_Cl_sn2_rcc conformation=0 reactant_id=H_H_CH3_CH3_Cl_none_-_r product_id=H_H_CH3_CH3_none_Cl_sn2_pc mp2_author_energy=-29302.391748605172 mp2_my_energy=0 hash=59123 address=T id=71 energy=-17370.222514146448 pbc="F F F"
C        2.29466544      -2.13189128       2.03298667      -0.52147878      -1.05711195       0.07957497       1.77454396      -0.20959012      -0.53800437
C        2.17916198      -2.51167276       3.47009865       0.10267356       0.12017197      -0.02476305       0.73828573      -0.09808569       0.73813848
H        2.19975899      -1.60520414       4.12709253       0.05473898       0.03966934      -0.21974749       0.25043462      -0.69749996      -0.54656292
F        4.73732895      -3.11952633       2.38181632       0.91456649      -1.78794884       0.81096099      -1.22767569       0.30158095      -0.22480833
Cl       0.83539671      -0.95167211       1.63281603       1.82107378       0.26317160       1.46868513      -0.16870880      -0.38654490      -0.04186535
H        2.28098782      -2.99736976       1.31882409      -0.14782618       0.15263288      -0.08174557      -0.05345338       1.03711754       0.77695739
H        3.18872832      -1.52155265       1.88826022       0.10315401      -0.01845448       0.23548543      -0.25574226      -0.51160231      -0.17059213
H        3.14176568      -3.13604075       3.54508447      -0.07531917       0.07634772       0.17429395      -1.04300028       0.79428667       0.20754051
H        1.26542261      -3.05069585       3.72564098      -0.07616225       0.12514245      -0.04227042      -0.01468389      -0.22966219      -0.20080327
9
Properties=species:S:1:pos:R:3:momenta:R:3:forces:R:3 R1=H R2=H R3=CH3 R4=CH3 leaving_group=Cl nucleophile=Cl rxn=sn2 config=rcc label=H_H_CH3_CH3_Cl_Cl_sn2_rcc conformation=0 reactant_id=H_H_CH3_CH3_Cl_none_-_r product_id=H_H_CH3_CH3_none_Cl_sn2_pc mp2_author_energy=-29302.391748605172 mp2_my_energy=0 hash=59123 address=T id=71 energy=-17370.02331417363 pbc="F F F"
C        2.89526325      -2.75826810       2.74442752       0.64468897      -0.77304667       0.01260632      -2.61604763       0.70613670      -0.98777732
C        2.59433731      -2.91097376       4.18974180       0.00185338      -0.34933023       1.08784411       2.01988786       0.60691519      -0.38945296
H        3.20114841      -2.19921026       4.75091715       0.06007495       0.01201022       0.15302315      -0.45963911       0.33886010       0.26520411
F        4.31835783      -4.90165582       3.11596600      -0.50768463      -1.39064710       0.28860220       0.38379466      -0.62872936       0.10285298
Cl       2.07175791      -0.92425213       2.21696305       1.51616694       0.63375980       0.20534526       0.17595155      -0.18718204       0.16653928
H        2.28232913      -3.38604757       2.07949986       0.21769048      -0.00626111       0.03844012       0.57537989       0.18666495       0.43939733
H        3.91138645      -2.75136224       2.44007534       0.01931861       0.07790001       0.11721730       0.67423138       0.06685460       0.06941328
H        3.13940204      -3.83347929       4.26656511       0.01516543      -0.14211940       0.06720114       0.17796460      -1.26060985       0.33079224
H        1.58439419      -2.98922321       4.50976841       0.05598297      -0.00270963       0.26228926      -0.93152321       0.17108971       0.00303106
9
Properties=species:S:1:pos:R:3:momenta:R:3:forces:R:3 R1=H R2=H R3=CH3 R4=CH3 leaving_group=Cl nucleophile=Cl rxn=sn2 config=rcc label=H_H_CH3_CH3_Cl_Cl_sn2_rcc conformation=0 reactant_id=H_H_CH3_CH3_Cl_none_-_r product_id=H_H_CH3_CH3_none_Cl_sn2_pc mp2_author_energy=-29302.391748605172 mp2_my_energy=0 hash=59123 address=T id=71 energy=-17369.898835899043 pbc="F F F"
C        3.29847248      -3.50598686       3.25165932       0.15733070      -0.54984597       0.35245479       0.82406158       1.37950191      -0.29515557
C        3.12304227      -3.37527630       4.72357644       0.27523446      -0.07494227       0.42791718       0.62488924      -1.54272599       0.11272981
H        3.92850546      -2.82391427       5.24335722       0.18327200      -0.00681745       0.16597948      -0.38862777      -0.22914351      -0.49253336
F        3.62295717      -6.01987598       3.80631979      -0.61576641      -1.37584876       0.16255616       0.01609386      -0.77929346       0.28923509
Cl       3.36442530      -1.08254477       2.84392365       1.53722867       0.18279924       0.60035514      -0.17161853       0.26817591      -0.05781197
H        2.44782466      -3.80890009       2.65815862      -0.01614566      -0.10191809      -0.05639418       0.05806358       0.08814440      -0.06490435
H        4.30721681      -3.45495485       2.80171638       0.01768750       0.05962210       0.35317609      -0.83208544      -0.26859006       0.42782096
H        3.19123713      -4.49182117       4.93200050       0.06719391       0.06758575       0.18193562       0.03916692       0.84144745       0.17172820
H        2.14629694      -2.99980596       5.00000532       0.14002215       0.12477518      -0.26128828      -0.16994344       0.24248335      -0.09110880
9
Properties=species:S:1:pos:R:3:momenta:R:3:forces:R:3 R1=H R2=H R3=CH3 R4=CH3 leaving_group=Cl nucleophile=Cl rxn=sn2 config=rcc label=H_H_CH3_CH3_Cl_Cl_sn2_rcc conformation=0 reactant_id=H_H_CH3_CH3_Cl_none_-_r product_id=H_H_CH3_CH3_none_Cl_sn2_pc mp2_author_energy=-29302.391748605172 mp2_my_energy=0 hash=59123 address=T id=71 energy=-17370.08950568696 pbc="F F F"
C        3.79186948      -4.18886257       3.83926261       0.04807828       1.30869077      -0.52183213      -0.49719529       0.49450341      -1.04133051
C        3.70000591      -3.97043299       5.31550402       0.35576896      -0.96986346       0.85639363       0.37119251      -1.16290982       0.31532252
H        4.69817118      -4.18547830       5.74925819      -0.13735173      -0.14565217      -0.06523893      -0.24045126       0.77902830      -0.26882114
F        2.92253295      -6.57635055       4.40206239      -0.21258158      -0.04924751       0.67438628      -0.11776888      -0.19048017       0.24552747
Cl       4.61479464      -1.54640377       3.49512087       2.24101453      -2.05239449       1.16007088      -0.01396858       0.05441081       0.02087592
H        2.94193479      -3.93410761       3.15039030      -0.01837732      -0.20284091       0.00145863       0.83177638      -0.23066584       1.19532705
H        4.77048085      -4.11057771       3.39046087      -0.04996447       0.16091942       0.13554446      -0.05000117       0.02996725       0.03565390
H        3.15101148      -4.81625085       5.77909518      -0.03623293      -0.05473793       0.40161298      -0.47070594       0.54323172      -0.57970080
H        3.30671692      -2.97851705       5.55234364      -0.01063200      -0.08537830      -0.23717555       0.18712223      -0.31708566       0.07714559
9
Properties=species:S:1:pos:R:3:momenta:R:3:forces:R:3 R1=H R2=H R3=CH3 R4=CH3 leaving_group=Cl nucleophile=Cl rxn=sn2 config=rcc label=H_H_CH3_CH3_Cl_Cl_sn2_rcc conformation=0 reactant_id=H_H_CH3_CH3_Cl_none_-_r product_id=H_H_CH3_CH3_none_Cl_sn2_pc mp2_author_energy=-29302.391748605172 mp2_my_energy=0 hash=59123 address=T id=71 energy=-17370.13150140399 pbc="F F F"
C        4.25516077      -4.77926127       4.55063651       0.37854447       0.96106413       0.57829859      -0.32396268      -2.06299684      -0.06315228
C        4.39610881      -4.88440772       5.98599056       0.03196798      -1.01010013       0.03622407       1.88088690       1.19290809       0.60210413
H        5.14312365      -5.58063136       6.31346638       0.03486848      -0.29820528      -0.19321893       0.29680176      -0.83330357      -0.02208540
F        2.31517843      -6.47978232       4.99796999       0.73618871       0.75210878       0.65826825       0.52317894       0.49590714      -0.05261900
Cl       6.01153548      -2.47173440       4.31537173       1.67333758      -2.72976443       1.33162476       0.24119476       0.28160572       0.03371232
H        3.35306979      -4.31234673       4.33942329       0.09678164      -0.13849714       0.16516286      -1.12154842       0.88712129      -1.10709494
H        5.11811710      -4.74003858       3.91479865      -0.07440050      -0.16893444       0.15533298      -0.04342305       0.22132636      -0.05566552
H        3.45078362      -5.12152807       6.42043725      -0.26479922       0.05472942       0.01901791      -0.68034028      -0.01572120       0.34855429
H        4.83398400      -3.91070968       6.24934926      -0.14109080       0.20735642      -0.02363889      -0.77278792      -0.16684700       0.31624639
9
Properties=species:S:1:pos:R:3:momenta:R:3:forces:R:3 R1=H R2=H R3=CH3 R4=CH3 leaving_group=Cl nucleophile=Cl rxn=sn2 config=rcc label=H_H_CH3_CH3_Cl_Cl_sn2_rcc conformation=0 reactant_id=H_H_CH3_CH3_Cl_none_-_r product_id=H_H_CH3_CH3_none_Cl_sn2_pc mp2_author_energy=-29302.391748605172 mp2_my_energy=0 hash=59123 address=T id=71 energy=-17370.33829734154 pbc="F F F"
C        4.45176725      -4.83472267       5.32301642       1.81658908       0.44428865       0.70679226       2.23444732      -0.03455640       0.72225702
C        4.92495203      -5.63494957       6.59840230       0.31305400      -1.29803077       0.40717764      -0.55854631       1.02421355      -1.34082398
H        5.99823059      -5.90183313       6.57336579      -0.18398406       0.02577342       0.19367315      -0.92934155      -0.23514772      -0.46789688
F        2.26860062      -6.18232805       5.68238521       0.08195271       0.35606440       0.23819148      -0.32111700      -0.21040123       0.22048795
Cl       7.48097490      -3.93418284       5.30927113       0.65275973      -2.18011096       0.88911209      -0.31217091       0.00013542      -0.02488869
H        3.39766945      -4.87227151       5.09112023      -0.04815950       0.29680464      -0.17306972      -0.23068180      -0.40166684       0.34682154
H        5.14611057      -4.65125205       4.51208897       0.02082997       0.07792586      -0.15276251      -0.01738229      -0.15209626       0.42194976
H        4.16380947      -6.43019490       6.66041360      -0.06677380      -0.03342392       0.46901800       0.43547864      -0.05848148       0.05513559
H        4.84006833      -4.97044925       7.45748913      -0.14058021      -0.03487590       0.12056897      -0.30068610       0.06800096       0.06695771
9
Properties=species:S:1:pos:R:3:momenta:R:3:forces:R:3 R1=H R2=H R3=CH3 R4=CH3 leaving_group=Cl nucleophile=Cl rxn=sn2 config=rcc label=H_H_CH3_CH3_Cl_Cl_sn2_rcc conformation=0 reactant_id=H_H_CH3_CH3_Cl_none_-_r product_id=H_H_CH3_CH3_none_Cl_sn2_pc mp2_author_energy=-29302.391748605172 mp2_my_energy=0 hash=59123 address=T id=71 energy=-17370.48363676323 pbc="F F F"
C        4.98136676      -5.31659426       5.76130394      -0.61016141       0.23368878       0.55622966       1.57135705      -0.08111384       1.03148596
C        5.11630190      -6.22768740       6.95551817       1.32649760       0.71844471       0.31971288      -0.22280183      -0.69019161      -0.24208358
H        5.91831731      -5.91158307       7.64125062      -0.01885416      -0.15695651      -0.11967672      -0.53543183       0.14577495      -0.22191447
F        2.48109982      -5.62082645       6.33568278       0.37474068       0.04246457       0.14309414      -0.48031343      -0.08203696       0.07339505
Cl       8.34915197      -5.00454492       6.04680937       0.46383246      -1.74212922       0.96826209      -0.54901810      -0.05312577      -0.12327174
H        4.01004709      -5.09988911       5.36940587      -0.00174107      -0.06551974      -0.20604339      -0.63962999      -0.25778566       0.20544724
H        5.80529029      -5.40591704       5.10050653      -0.07634376      -0.00876466       0.11190185       0.64178512       0.19932101      -0.62752729
H        5.44175883      -7.20613156       6.55776168      -0.11585337      -0.10942877      -0.04974877      -0.21003084       0.35233083       0.09963404
H        4.12295158      -6.38136439       7.42029753       0.02312313      -0.22115925      -0.21725364       0.42408387       0.46682705      -0.19516519
9
Properties=species:S:1:pos:R:3:momenta:R:3:forces:R:3 R1=H R2=H R3=CH3 R4=CH3 leaving_group=Cl nucleophile=Cl rxn=sn2 config=rcc label=H_H_CH3_CH3_Cl_Cl_sn2_rcc conformation=0 reactant_id=H_H_CH3_CH3_Cl_none_-_r product_id=H_H_CH3_CH3_none_Cl_sn2_pc mp2_author_energy=-29302.391748605172 mp2_my_energy=0 hash=59123 address=T id=71 energy=-17370.45029784775 pbc="F F F"
C        5.50042213      -5.66498001       6.57334636       0.82169648      -0.41234511       0.46785291      -0.14859718       0.42075878       0.32324560
C        5.25341229      -6.79108327       7.50522624       0.25829500      -0.47723519       0.02611883       0.64464140      -1.33991079      -0.58702824
H        6.19007198      -7.23997855       7.92052264       0.04162975       0.28961576      -0.24358634      -0.82584417       0.81496127       0.07644611
F        2.96412277      -5.14080458       6.55979015       0.13489593       0.45503561       0.54129968       0.07179775      -0.10425020       0.06772804
Cl       8.91933429      -5.92860422       6.57040966       0.53192084      -1.14208787       1.03143249       0.15868018      -0.10340118       0.04443756
H        4.55084474      -5.17419165       6.31606333       0.36495897      -0.00227394      -0.03962398      -0.17167034       0.32320692      -0.39034885
H        6.35085964      -5.65735482       5.89734591       0.01208135      -0.25653031      -0.07325772      -0.28185507      -0.32905060       0.28007352
H        4.83992884      -7.60732832       6.88159617      -0.39763170       0.04347280       0.10922717      -0.00159131       0.31619091       0.11534896
H        4.47094535      -6.53160373       8.22804710      -0.13645169      -0.06227281      -0.01929561       0.55443873       0.00149489       0.07009730
9
Properties=species:S:1:pos:R:3:momenta:R:3:forces:R:3 R1=H R2=H R3=CH3 R4=CH3 leaving_group=Cl nucleophile=Cl rxn=sn2 config=rcc label=H_H_CH3_CH3_Cl_Cl_sn2_rcc conformation=0 reactant_id=H_H_CH3_CH3_Cl_none_-_r product_id=H_H_CH3_CH3_none_Cl_sn2_pc mp2_author_energy=-29302.391748605172 mp2_my_energy=0 hash=59123 address=T id=71 energy=-17370.474508070718 pbc="F F F"
C        6.31101077      -5.64658162       7.32971026       1.27288533      -0.04648261       0.08385572       1.07043983      -0.89315770      -0.11485586
C        5.74784840      -7.02917769       7.58307734      -0.66956455      -0.77846774       0.03926970       0.21048112       1.19228977       0.15434794
H        5.93971902      -7.12172257       8.65056018       0.15290583       0.16827445       0.18226682      -0.73539737      -0.13380347       0.32504270
F        3.83813225      -5.01325686       7.23908985       0.59318416       0.18559958       0.26996553      -1.41723946       0.22956607       0.00198321
Cl       9.28137554      -7.23817297       7.35660749      -0.16183581      -0.91086462       0.75605427       0.45131878      -0.20514141       0.00154948
H        5.64060192      -4.84177989       7.62530904      -0.04480128       0.04558216       0.07447606      -0.01802906      -0.07239397      -0.05981785
H        7.37908903      -5.58336534       7.52933122       0.06110842       0.06753873       0.28896525      -0.20078992       0.18600379      -0.00382060
H        6.41108898      -7.76983724       7.16044448      -0.04318819      -0.04496681      -0.22790462      -0.25192915      -0.28682966      -0.65927905
H        4.66973480      -7.03670205       7.28476121       0.25763921      -0.04649312       0.09811505       0.89114524      -0.01653342       0.35485003
9
Properties=species:S:1:pos:R:3:momenta:R:3:forces:R:3 R1=H R2=H R3=CH3 R4=CH3 leaving_group=Cl nucleophile=Cl rxn=sn2 config=rcc label=H_H_CH3_CH3_Cl_Cl_sn2_rcc conformation=0 reactant_id=H_H_CH3_CH3_Cl_none_-_r product_id=H_H_CH3_CH3_none_Cl_sn2_pc mp2_author_energy=-29302.391748605172 mp2_my_energy=0 hash=59123 address=T id=71 energy=-17370.339174827724 pbc="F F F"
C        6.87120426      -5.98550739       7.67384975       0.64662561       0.04238670       0.85855394       0.51436179       1.80371041       0.37989289
C        6.01919503      -7.14110202       7.62099430       0.79473997      -0.81469858       0.82480067      -1.37540655       0.55014832      -0.68659536
H        5.67006819      -7.34637709       8.62365708       0.01472241       0.17227099      -0.30739996      -0.75947485       0.19158951       0.11182955
F        4.55557597      -4.82124183       7.90202381       0.82657564       0.18703578       0.12081586       0.75122878      -0.24114815      -0.14857122
Cl       9.59060049      -8.14460175       8.00278208      -0.67270802      -1.04050126       0.56552479      -0.10032206       0.01476356      -0.06826913
H        6.41056239      -4.98658613       7.87360656      -0.12959936      -0.08320253       0.06991765       0.16927527      -0.88962802      -0.14047146
H        7.94291214      -6.17116881       7.68376385       0.15485114       0.12396245       0.00686492      -0.17997238       0.36515026       0.09757772
H        6.55907850      -7.99282729       7.33501577      -0.09528466      -0.00414572      -0.18461824       1.01543006      -1.28735610      -0.66280882
H        5.28023634      -6.87478862       6.82776071       0.06088823      -0.11839673      -0.18804018      -0.03512006      -0.50722978       1.11741583
9
Properties=species:S:1:pos:R:3:momenta:R:3:forces:R:3 R1=H R2=H R3=CH3 R4=CH3 leaving_group=Cl nucleophile=Cl rxn=sn2 config=rcc label=H_H_CH3_CH3_Cl_Cl_sn2_rcc conformation=0 reactant_id=H_H_CH3_CH3_Cl_none_-_r product_id=H_H_CH3_CH3_none_Cl_sn2_pc mp2_author_energy=-29302.391748605172 mp2_my_energy=0 hash=59123 address=T id=71 energy=-17370.36590500304 pbc="F F F"
C        7.39945592      -6.33526245       8.26230114       0.82893288      -0.21513703       0.31116819      -0.01647812      -0.25853419      -0.30784794
C        6.28025210      -7.22617765       7.79289214      -0.03867286       0.07870044      -0.54203441       1.84980777      -2.45666234       0.72840266
H        6.28938887      -8.09668064       8.53915544       0.01120549      -0.00688802       0.34085473      -0.71528734       1.31735822      -0.87598607
F        5.46065565      -4.64025799       8.33261900       0.43907196      -0.61561919       0.56676872      -0.41812472       0.45236367      -0.03867937
Cl       9.82284796      -9.04557324       8.59492571      -0.19407505      -0.87685967       0.84129682      -0.56858301       0.55856985      -0.12774307
H        7.04735881      -5.32525623       8.55940300       0.27474858      -0.01005903      -0.05516330       0.31183522      -0.62190113      -0.02141471
H        8.25409066      -6.82801680       8.69824183       0.01665324       0.11250701      -0.00942816       0.03464775       0.09311559       0.00925918
H        6.45653645      -7.70087111       6.82439875      -0.12648467       0.11742897       0.15483962       0.49634337       0.17343923       0.03050177
H        5.38169012      -6.68097394       7.66449111       0.11543001       0.14342395      -0.14423035      -0.97416093       0.74225109       0.60350754
9
Properties=species:S:1:pos:R:3:momenta:R:3:forces:R:3 R1=H R2=H R3=CH3 R4=CH3 leaving_group=Cl nucleophile=Cl rxn=sn2 config=rcc label=H_H_CH3_CH3_Cl_Cl_sn2_rcc conformation=0 reactant_id=H_H_CH3_CH3_Cl_none_-_r product_id=H_H_CH3_CH3_none_Cl_sn2_pc mp2_author_energy=-29302.391748605172 mp2_my_energy=0 hash=59123 address=T id=71 energy=-17370.468638658487 pbc="F F F"
C        7.79273473      -6.81091950       9.14777215       0.01781016      -0.61461530       0.32410669      -0.02953345      -0.58625158      -0.50440795
C        6.78414990      -7.34989731       8.15282521      -0.25564865      -0.11925509      -0.08582190       2.43729477       0.96031785      -0.99201135
H        6.07107644      -7.88336793       8.68485588       0.13152708       0.11830977       0.17776028      -1.63925725      -0.68916625       0.99767360
F        6.45386901      -4.71196485       8.52221224       0.81949587       0.52410453       0.35803737      -0.49342392       0.89027967      -0.08892691
Cl       9.79011237      -9.60490055       8.95321194       0.94053405      -1.73407475       0.91377715      -0.01750665      -0.18946795      -0.04606659
H        7.57930354      -5.86525335       9.60171110      -0.21053814      -0.03438968      -0.27982830      -0.30616454       0.34459168       0.01185983
H        8.41629260      -7.52909375       9.64085274       0.14587730      -0.10112447       0.27681626       0.12040196      -0.19530524       0.22561719
H        7.33508191      -8.07949830       7.54171736       0.14121372       0.33289562       0.05994336      -0.25481670       0.27374075      -0.21008612
H        6.38319311      -6.47202805       7.58487726      -0.31528397       0.27107816      -0.18341897       0.18300578      -0.80873893       0.60634829
9
Properties=species:S:1:pos:R:3:momenta:R:3:forces:R:3 R1=H R2=H R3=CH3 R4=CH3 leaving_group=Cl nucleophile=Cl rxn=sn2 config=rcc label=H_H_CH3_CH3_Cl_Cl_sn2_rcc conformation=0 reactant_id=H_H_CH3_CH3_Cl_none_-_r product_id=H_H_CH3_CH3_none_Cl_sn2_pc mp2_author_energy=-29302.391748605172 mp2_my_energy=0 hash=59123 address=T id=71 energy=-17370.350428733986 pbc="F F F"
C        8.85735142      -7.01989402       9.44679161       0.02234526      -0.64277167       0.55896337       1.37344328      -2.50543637      -0.56605514
C        7.82418492      -7.57864653       8.52212542      -0.16684203       0.55554166       0.69662729      -0.04404689      -1.47155535       2.16527756
H        7.43348898      -8.50990210       9.06588513      -0.17089952       0.64538905       0.02686080      -0.08066310       1.45215686      -0.87807620
F        7.37191713      -4.93074116       9.23536274       1.40099492      -0.62874698      -0.06488246      -0.43507048       0.72728313      -0.10594799
Cl       9.60696094     -10.44425745       9.61200279       0.58586601      -1.80904125       0.78963012       0.09676959       0.20937596       0.02247058
H        8.81219671      -5.98375700       9.69422499      -0.08039412       0.21665118       0.29586509      -0.03179383       0.51547897       0.04303725
H        9.74813784      -7.64664415       9.53000345      -0.03435787       0.01017232       0.05122331      -0.09866627       0.44218919       0.27626251
H        8.17222049      -7.92636902       7.57791996       0.13345390       0.01738861      -0.11450317       0.74407579      -0.04414455      -0.71553400
H        7.20108659      -6.72716291       8.43049587       0.14870182      -0.12818541      -0.21067975      -1.52404810       0.67465216      -0.24143457
9
Properties=species:S:1:pos:R:3:momenta:R:3:forces:R:3 R1=H R2=H R3=CH3 R4=CH3 leaving_group=Cl nucleophile=Cl rxn=sn2 config=rcc label=H_H_CH3_CH3_Cl_Cl_sn2_rcc conformation=0 reactant_id=H_H_CH3_CH3_Cl_none_-_r product_id=H_H_CH3_CH3_none_Cl_sn2_pc mp2_author_energy=-29302.391748605172 mp2_my_energy=0 hash=59123 address=T id=71 energy=-17370.467527647448 pbc="F F F"
C        9.13797786      -7.62397870      10.18020951       1.03037578       0.27874040       0.09736989      -0.04970360       1.04851999       0.05221345
C        8.54044996      -7.70383886       8.83827153       0.26752295      -0.17310579       0.13149075       1.16808300      -0.34380713      -2.64327475
H        7.48257715      -7.92506791       8.82155620      -0.01524536      -0.05885011      -0.03402488      -0.37156000       0.39414912       0.58923992
F        8.63422524      -5.12377923       9.69728733       0.03956164       0.14686386       0.55376703       0.18576803      -0.17512930       0.12174238
Cl       9.60053374     -11.07674647      10.11766260      -0.51960922      -1.31573303       0.55526250      -0.03667130       0.10405040      -0.01669691
H        9.20475282      -6.59505132      10.56580124      -0.04428247       0.17467474       0.03050535      -0.17334442      -0.39322870      -0.05768322
H        9.10101535      -8.47967919      10.81666529       0.01649646       0.04026885       0.07072270      -0.02428594      -0.39245032       0.27431658