9
Properties=species:S:1:pos:R:3:momenta:R:3:forces:R:3 R1=H R2=H R3=CH3 R4=CH3 leaving_group=Cl nucleophile=Cl rxn=sn2 config=rcc label=H_H_CH3_CH3_Cl_Cl_sn2_rcc conformation=0 reactant_id=H_H_CH3_CH3_Cl_none_-_r product_id=H_H_CH3_CH3_none_Cl_sn2_pc mp2_author_energy=-29302.391748605172 mp2_my_energy=0 hash=59123 address=T id=71 energy=-17370.412368016237 pbc="F F F"
C        0.12542541       0.11270554      -0.00029240       0.85446548      -0.38757043      -0.23946918      -0.09214561       1.11788396      -0.00082481
C        1.62503867       0.00847468       0.00156754       0.06073515       0.96330941       0.32077654      -0.06338950      -0.85342640       0.00215309
H        1.99473018      -0.50605055       0.89354482       0.05197917      -0.15168251       0.11006600       0.00320508       0.00300841       0.00517082
F        0.89788639       2.64149152      -0.00442372       0.86629254      -0.67668547      -0.41118764      -0.23271315      -0.10403772      -0.00076135
Cl      -0.69504884      -1.53494042       0.00509220       1.83983454       0.98591690       0.53244695       0.38207948      -0.16174994      -0.00050876
H       -0.22306082       0.64592326      -0.87549887       0.23775024      -0.03710604      -0.31673865      -0.00302890      -0.00293595      -0.00472561
H       -0.22431889       0.65275656       0.87018381       0.15836524       0.13766973       0.09683000      -0.00396382      -0.00350204       0.00469305
H        1.88822962       1.08069343      -0.00059746       0.13354552      -0.28716585      -0.10870511       0.00778691       0.00253743      -0.00033365
H        1.99700981      -0.51031959      -0.88698835      -0.19820780       0.13817418       0.34713343       0.00216950       0.00222225      -0.00486279
9
Properties=species:S:1:pos:R:3:momenta:R:3:forces:R:3 R1=H R2=H R3=CH3 R4=CH3 leaving_group=Cl nucleophile=Cl rxn=sn2 config=rcc label=H_H_CH3_CH3_Cl_Cl_sn2_rcc conformation=0 reactant_id=H_H_CH3_CH3_Cl_none_-_r product_id=H_H_CH3_CH3_none_Cl_sn2_pc mp2_author_energy=-29302.391748605172 mp2_my_energy=0 hash=59123 address=T id=71 energy=-17370.230861183434 pbc="F F F"
C        1.38992131       0.32764726      -0.04983291       0.43547107      -0.58230901       0.19123797      -1.18226493      -2.14254891      -0.27069347
C        2.56337227       0.28638535       0.89167879       0.63476239       0.62260386       0.63378776       1.47576478      -0.47100313      -2.40240360
H        2.27938818       0.28181831       1.89112141       0.31877313       0.22907763      -0.09477124      -0.57591349      -0.05631959       1.94682449
F        2.24365618       2.69495783      -0.71754810       1.69708961      -0.18937234      -0.32452277       0.53448590       1.11322544      -0.27131959
Cl       0.41809366      -1.28620823       0.26627713       2.04467322       0.70492826       0.24717735       0.34225046       0.39860317       0.13836177
H        1.67172578       0.19660434      -1.10635963       0.09668889      -0.15751535       0.04417408      -0.09763585       0.62637909       0.72139344
H        0.65123467       1.13099285       0.09794815      -0.08833571       0.05066364      -0.25204162       0.91637046      -0.36040779      -0.09000296
H        3.14597369       1.17565489       0.64265470       0.02599779       0.36225002      -0.10291741      -0.38316049       0.34904352      -0.01059068
H        3.26158128      -0.57515621       0.68063083       0.17016633      -0.12793146       0.09904905      -1.02989683       0.54302821       0.23843060
9
Properties=species:S:1:pos:R:3:momenta:R:3:forces:R:3 R1=H R2=H R3=CH3 R4=CH3 leaving_group=Cl nucleophile=Cl rxn=sn2 config=rcc label=H_H_CH3_CH3_Cl_Cl_sn2_rcc conformation=0 reactant_id=H_H_CH3_CH3_Cl_none_-_r product_id=H_H_CH3_CH3_none_Cl_sn2_pc mp2_author_energy=-29302.391748605172 mp2_my_energy=0 hash=59123 address=T id=71 energy=-17370.27375546394 pbc="F F F"
C        2.69090048       0.40952343      -0.00755331       0.85343022       0.72718143       0.66597883       0.42384212      -0.26985289      -1.30317684
C        3.12470373       1.06382438       1.25462607       0.21306816       0.53276023      -0.03235048      -0.57705716       2.85737327      -0.05480003
H        2.25484126       1.48374075       1.86418598      -0.12343745      -0.02934177       0.01093176       0.98799447      -0.83924157      -0.77770895
F        3.89213541       2.43325360      -1.21733217       0.81275953      -0.46550312      -0.23631355      -0.21136767      -0.41783961       0.34155439
Cl       1.65946998      -1.01849271       0.60380796       1.32888019       0.13477449       0.16967975      -0.00325663       0.13299538      -0.38528677
H        3.52901184      -0.02053451      -0.58970953      -0.00674329       0.02534972      -0.00958714      -0.44497501       0.25172841       0.66713699
H        2.16857094       1.02746399      -0.74337738       0.17635824      -0.15331155      -0.03686290      -0.13372103      -0.06096953       0.68899204
H        3.75446017       1.95615747       0.94954278       0.03643631      -0.09399905      -0.13804871      -0.55553234      -1.10814861      -0.00708926
H        3.68618671       0.36475950       1.82261191      -0.02592296      -0.11958716      -0.12345989       0.51407325      -0.54604483       0.83037842
9
Properties=species:S:1:pos:R:3:momenta:R:3:forces:R:3 R1=H R2=H R3=CH3 R4=CH3 leaving_group=Cl nucleophile=Cl rxn=sn2 config=rcc label=H_H_CH3_CH3_Cl_Cl_sn2_rcc conformation=0 reactant_id=H_H_CH3_CH3_Cl_none_-_r product_id=H_H_CH3_CH3_none_Cl_sn2_pc mp2_author_energy=-29302.391748605172 mp2_my_energy=0 hash=59123 address=T id=71 energy=-17370.255102814735 pbc="F F F"
C        3.90312195       0.52620933       0.16093635       0.91957036      -0.09932872      -0.75288799       0.40807169       1.03857237      -0.02224465
C        3.65148987       1.80721196       0.90185758      -0.22300411       0.34554255       0.57217214       1.29322686      -0.66642319       2.24818124
H        2.63220575       2.04965662       0.99035026      -0.05258090      -0.15338196      -0.06424280      -1.53213456       0.66484088      -0.61338878
F        5.40939687       2.08902218      -1.32060045       1.72573973       0.07128721      -0.41817548      -0.38570419      -0.43160942       0.42987940
Cl       2.83868195      -0.73089858       0.95850011       1.57296443       0.79317127       1.03409329      -0.01591132      -0.20892894      -0.16158622
H        4.93252788       0.29993448       0.33280637      -0.00496593       0.13879224       0.04370491       0.51248550      -0.59331984      -0.18793623
H        3.75307610       0.63530808      -0.90205711      -0.02901043      -0.07918820       0.11021401      -0.24214586      -0.17937734      -0.04536990
H        4.31451631       2.50411178       0.38658624      -0.00835499      -0.36339953      -0.07555547      -0.16210064       0.26043083      -0.06664098
H        3.92456643       1.68597657       2.01535299      -0.01477129       0.01098509      -0.12802466       0.12421252       0.11581466      -1.58089388
9
Properties=species:S:1:pos:R:3:momenta:R:3:forces:R:3 R1=H R2=H R3=CH3 R4=CH3 leaving_group=Cl nucleophile=Cl rxn=sn2 config=rcc label=H_H_CH3_CH3_Cl_Cl_sn2_rcc conformation=0 reactant_id=H_H_CH3_CH3_Cl_none_-_r product_id=H_H_CH3_CH3_none_Cl_sn2_pc mp2_author_energy=-29302.391748605172 mp2_my_energy=0 hash=59123 address=T id=71 energy=-17370.19009195814 pbc="F F F"
C        5.00159914       0.76551884       0.32216036       0.62241964      -0.24683689       0.33064887      -0.72402539      -0.09912469      -0.12589670
C        4.30273584       2.07585452       0.17378210       0.09352688      -0.30771864      -0.60126311       1.18528404      -0.81326082      -2.11351068
H        3.42329910       2.06451249      -0.48106344       0.16405418      -0.13227398       0.17060247      -0.27444839      -0.05918852       0.68933284
F        6.79161982       1.85474610      -1.21081900       1.36805212      -0.00915825       0.07173274      -0.29086509      -0.07717419       0.17051658
Cl       4.00062548      -0.36184142       1.37748279       1.61309701       1.08195207       0.61270933      -0.50654076      -0.26580423       0.04336039
H        5.88506388       0.89323152       0.88226780       0.06722830       0.14439103      -0.11249638       1.11904599       0.08264381       0.14619411
H        5.19112440       0.33692564      -0.64158798      -0.10474782       0.12249853      -0.16856223       0.23291663      -0.45041166      -0.12223000
H        5.13627211       2.44083711      -0.46247636       0.17994175       0.02149628      -0.15527674      -0.05380319       0.69584037       0.07155280
H        4.27892667       2.57720355       1.09372457      -0.07301496      -0.00217978       0.17692157      -0.68756384       0.98647994       1.24068067
9
Properties=species:S:1:pos:R:3:momenta:R:3:forces:R:3 R1=H R2=H R3=CH3 R4=CH3 leaving_group=Cl nucleophile=Cl rxn=sn2 config=rcc label=H_H_CH3_CH3_Cl_Cl_sn2_rcc conformation=0 reactant_id=H_H_CH3_CH3_Cl_none_-_r product_id=H_H_CH3_CH3_none_Cl_sn2_pc mp2_author_energy=-29302.391748605172 mp2_my_energy=0 hash=59123 address=T id=71 energy=-17370.318349922443 pbc="F F F"
C        6.21884845       0.92858170       0.43119119       0.27124045       0.41174625      -0.35385324       0.15935368       0.18753084       0.81969368
C        5.35176426       1.63818228      -0.53802273       1.03995237       0.20839367      -0.59298345       1.13987107       1.33848982       0.02087183
H        4.73765678       0.97715790      -1.09412092      -0.24697373      -0.31296915      -0.13536941      -0.95448989      -0.57846798      -0.50240703
F        8.10676390       1.82420727      -1.07873795       0.04362112      -0.29276771       0.79632780      -0.42414423      -0.23026109       0.26404592
Cl       5.11966845       0.24900255       1.78933808       2.04154467       0.79098423       0.65548389      -0.08712804      -0.30564361      -0.15730330
H        6.84055969       1.63276914       0.96387346       0.22641915      -0.13397604       0.19572196       0.45858723      -0.25119909      -0.27850360
H        6.77346876       0.10737400      -0.02363688       0.20178781      -0.16196746       0.07250671      -0.04166720       0.32175707       0.31713564
H        6.22846614       1.96996550      -1.14646206       0.05093510       0.11670632      -0.08957578      -0.43214189       0.24105781      -0.25407813
H        4.81518668       2.51502843      -0.11004543       0.08075055       0.00817890      -0.24153948       0.18175928      -0.72326378      -0.22945500
9
Properties=species:S:1:pos:R:3:momenta:R:3:forces:R:3 R1=H R2=H R3=CH3 R4=CH3 leaving_group=Cl nucleophile=Cl rxn=sn2 config=rcc label=H_H_CH3_CH3_Cl_Cl_sn2_rcc conformation=0 reactant_id=H_H_CH3_CH3_Cl_none_-_r product_id=H_H_CH3_CH3_none_Cl_sn2_pc mp2_author_energy=-29302.391748605172 mp2_my_energy=0 hash=59123 address=T id=71 energy=-17370.262735801578 pbc="F F F"
C        7.61205580       1.26444532       0.60638848       0.14931908      -0.01529160       0.38717053       0.15429954       0.90724420      -0.63499908
C        6.86833068       0.74874384      -0.60081528       1.58066895      -0.10145927      -0.56087300      -1.62135547      -1.25593024       0.96870405
H        6.46973731      -0.32086438      -0.36139792       0.24577024       0.11750309      -0.08327797       1.04219944       1.59699914      -0.82409179
F        9.49676684       1.80580418      -1.03136576       0.84276375      -0.10823455      -0.23218399      -0.56079470      -0.21681705       0.35039058
Cl       6.33971025       1.05062156       1.98187661       1.44159305       1.23141622       0.90202692       0.63798940       0.18282026      -0.09155558
H        7.87564888       2.33900285       0.45453130       0.21278856       0.08718232       0.11026770      -0.17020106      -1.11775355       0.47952524
H        8.50445349       0.66766011       0.80523658       0.19868043       0.05541231       0.11299685      -0.27919446       0.31079927       0.18889607
H        7.58798369       0.86570881      -1.40418510       0.00103956      -0.40804960      -0.26365795       0.13372990      -0.24659820      -0.28937450
H        5.93793349       1.34285718      -0.74960002      -0.23953288      -0.10036953      -0.00589820       0.66332741      -0.16076383      -0.14749499
9
Properties=species:S:1:pos:R:3:momenta:R:3:forces:R:3 R1=H R2=H R3=CH3 R4=CH3 leaving_group=Cl nucleophile=Cl rxn=sn2 config=rcc label=H_H_CH3_CH3_Cl_Cl_sn2_rcc conformation=0 reactant_id=H_H_CH3_CH3_Cl_none_-_r product_id=H_H_CH3_CH3_none_Cl_sn2_pc mp2_author_energy=-29302.391748605172 mp2_my_energy=0 hash=59123 address=T id=71 energy=-17370.13462223984 pbc="F F F"
C        8.93817654       1.55833434       0.62789638       0.49500600       0.74923957      -0.03430657       0.16632129       0.87687656       0.60525439
C        8.76044747       0.09492312       0.19296440       0.34057819      -0.25882697       0.56833381      -0.26836409       2.65462936      -1.43141562
H        8.86806048      -0.51765280       1.05421301      -0.02307756       0.13805937       0.10286736       0.05286227      -0.93850332       0.69059423
F       10.77645604       1.70752402      -1.06363600       1.23681869      -0.05065642      -0.25738839       0.52438623      -0.13211009      -0.54143247
Cl       7.64024564       1.82411064       1.92702824       1.55873969       0.40688223      -0.12273856      -0.28713437       0.23656720       0.03134838
H        8.88059041       2.29460203      -0.20048110       0.25383988       0.06866820       0.03249110      -0.43836118      -0.80398155       0.57627667
H        9.88780986       1.84852381       1.11684466      -0.03620203       0.06507032      -0.08669164      -0.57339778      -0.85548955      -0.36383417
H        9.64588497       0.11385543      -0.51470102       0.08872525      -0.23730178      -0.09652069      -0.97927559      -0.53874232       0.14475323
H        7.68577726       0.06727415      -0.23092398       0.25772998      -0.16764760       0.23894803       1.80296323      -0.49924628       0.28845535
9
Properties=species:S:1:pos:R:3:momenta:R:3:forces:R:3 R1=H R2=H R3=CH3 R4=CH3 leaving_group=Cl nucleophile=Cl rxn=sn2 config=rcc label=H_H_CH3_CH3_Cl_Cl_sn2_rcc conformation=0 reactant_id=H_H_CH3_CH3_Cl_none_-_r product_id=H_H_CH3_CH3_none_Cl_sn2_pc mp2_author_energy=-29302.391748605172 mp2_my_energy=0 hash=59123 address=T id=71 energy=-17370.088901544783 pbc="F F F"
C       10.10845298       1.74699961       0.65393744       1.29042372      -0.57204946      -0.80825537       2.84887260      -0.59787350      -1.56056408
C       10.69522884       0.39041864       1.16887422       1.25028528       0.18487527       0.82977877       1.16075555       3.54896143       0.16324311
H       11.04443368       0.59615328       2.23711144      -0.13993249       0.20298890      -0.07172144       0.09794494      -0.51787507      -1.42396817
F       11.89787342       1.31192022      -1.08879664       0.27063069       0.11680364       0.68904955      -1.09967740       0.31407150       0.90744996
Cl       8.80670171       2.36602363       1.77476710       2.48238752       0.99016887      -0.36898249      -0.37199149      -0.13070095       0.34571912
H        9.73457478       1.69559441      -0.36299045       0.22555849       0.12811441       0.03138979      -0.21108064      -0.24754708       0.17872109
H       10.91537436       2.48843677       0.61494673      -0.21291979       0.02363676      -0.05159878      -0.39888765      -0.27420349       0.16750939
H       11.44675269       0.31224207       0.28937587       0.06385731      -0.18041005       0.00071497      -0.40612898      -0.23929158       1.28475921
H        9.93922402      -0.31271202       1.20673338       0.11445754       0.01988494       0.19158056      -1.61980693      -1.85554126      -0.06286964
9
Properties=species:S:1:pos:R:3:momenta:R:3:forces:R:3 R1=H R2=H R3=CH3 R4=CH3 leaving_group=Cl nucleophile=Cl rxn=sn2 config=rcc label=H_H_CH3_CH3_Cl_Cl_sn2_rcc conformation=0 reactant_id=H_H_CH3_CH3_Cl_none_-_r product_id=H_H_CH3_CH3_none_Cl_sn2_pc mp2_author_energy=-29302.391748605172 mp2_my_energy=0 hash=59123 address=T id=71 energy=-17370.12914623399 pbc="F F F"
C       11.32191409       1.76987979       0.71259210      -0.09248070       0.56729665       0.48951297      -0.12968024       1.46956174       0.95112108
C       12.34872565       1.30466888       1.69840692       1.85249837      -0.31096774      -1.04274805      -3.19331273      -0.88293166       1.68436137
H       12.74570793       2.18247917       2.08140520       0.09199209       0.22128134       0.15169609       1.27180987       1.62325778       0.84477950
F       12.94281564       0.80888947      -0.87271315       1.03791805      -0.64072945       0.87624657       0.29458206      -0.23454663      -0.49256585
Cl       9.96543685       2.74317990       1.64571633       2.16588386       0.79371656      -0.59367585       0.66119655      -0.48612018      -0.23474915
H       10.84017226       1.06613175       0.12274547       0.15877764      -0.06358677       0.13053930      -0.90551993      -1.53216549      -0.55330860
H       11.79382894       2.42105290       0.02118518       0.09204013      -0.00439637       0.21010682       0.16688115       0.77259502      -0.37329498
H       12.99363896       0.78533680       1.03610539       0.30407408       0.12088500       0.16665695       0.96708901      -0.96165408      -0.39580958
H       11.86296725       0.77775900       2.59576106       0.12947124       0.29813652       0.08631843       0.86695425       0.23200350      -1.43053380
9
Properties=species:S:1:pos:R:3:momenta:R:3:forces:R:3 R1=H R2=H R3=CH3 R4=CH3 leaving_group=Cl nucleophile=Cl rxn=sn2 config=rcc label=H_H_CH3_CH3_Cl_Cl_sn2_rcc conformation=0 reactant_id=H_H_CH3_CH3_Cl_none_-_r product_id=H_H_CH3_CH3_none_Cl_sn2_pc mp2_author_energy=-29302.391748605172 mp2_my_energy=0 hash=59123 address=T id=71 energy=-17370.28221860817 pbc="F F F"
C       12.80761813       1.91741733       0.90904165       0.71678680      -0.60389231      -0.57127077      -0.24067986       2.41918593       0.59474280
C       14.08957725       2.48304366       1.54085743       1.56598611       0.51810783      -0.52415275      -1.18868006       1.18442121      -2.51445317
H       14.22701828       3.52136718       1.12932070       0.10292510      -0.26068831       0.07866847      -0.07758235      -0.81968852       0.43298011
F       14.12985778       0.18753967      -0.15597633       0.90460524       0.22895922       1.27136287       0.67221765      -0.64792674      -0.36257982
Cl      11.43891226       3.11173307       1.53213949       1.03223379       1.00271333       0.24018056       0.40656729      -0.46526722      -0.20674682
H       12.53440723       0.94025015       1.16602669      -0.15184132       0.03710528      -0.03769513      -0.21414476      -1.08916275       0.74444283
H       12.79727680       1.93894011      -0.16380706      -0.10138514      -0.12810744      -0.20270025       0.10342242       0.31490220      -0.15645988
H       14.87588909       1.87111729       1.15332530       0.28678985       0.10819647       0.17038190       0.45652394      -0.67171333       0.11515328
H       14.00643872       2.57716687       2.58695816       0.34239369      -0.09889766      -0.03625792       0.08235572      -0.22475077       1.35292067
9
Properties=species:S:1:pos:R:3:momenta:R:3:forces:R:3 R1=H R2=H R3=CH3 R4=CH3 leaving_group=Cl nucleophile=Cl rxn=sn2 config=rcc label=H_H_CH3_CH3_Cl_Cl_sn2_rcc conformation=0 reactant_id=H_H_CH3_CH3_Cl_none_-_r product_id=H_H_CH3_CH3_none_Cl_sn2_pc mp2_author_energy=-29302.391748605172 mp2_my_energy=0 hash=59123 address=T id=71 energy=-17370.220996763004 pbc="F F F"
C       14.11172967       2.14405243       1.13027030       0.43381721       0.51057778       0.07114350       0.67556288      -0.42014552      -0.79394667
C       15.35898386       2.89991734       0.63077757       0.67477322      -0.69959539      -0.30521341       0.90104598      -0.97629796       2.54144848
H       15.05258664       3.60901022      -0.11056123      -0.07406203       0.16647514      -0.12075519       0.23450507       0.07341329      -1.01342129
F       15.41088559       0.07013558       0.97314306       0.75945901      -0.02798324       0.71228530       0.12421060       0.18879180      -0.09635952
Cl      12.90856783       3.46619623       1.47526707       1.51675426       0.60139399       0.09875823      -0.75044677       0.70283871       0.33022771
H       14.26390354       1.52357437       1.99798892       0.14870964      -0.00513487       0.11498301       0.18005464       0.18615638       0.05947776
H       13.66006879       1.50944430       0.35609132       0.10783183      -0.16024901      -0.12255659       0.46557847       0.33193974       0.31282474
H       16.09820401       2.06798457       0.43382800       0.34118794       0.20466153      -0.08684131      -0.93462805       0.79897668      -0.47084900
H       15.83303174       3.53559914       1.46231491      -0.08396053       0.06388926      -0.04555598      -0.89588282      -0.88567312      -0.86940221
9
Properties=species:S:1:pos:R:3:momenta:R:3:forces:R:3 R1=H R2=H R3=CH3 R4=CH3 leaving_group=Cl nucleophile=Cl rxn=sn2 config=rcc label=H_H_CH3_CH3_Cl_Cl_sn2_rcc conformation=0 reactant_id=H_H_CH3_CH3_Cl_none_-_r product_id=H_H_CH3_CH3_none_Cl_sn2_pc mp2_author_energy=-29302.391748605172 mp2_my_energy=0 hash=59123 address=T id=71 energy=-17370.201519078546 pbc="F F F"
C       15.60715054       2.43564833       1.39189590       1.49626971      -0.11896889       0.01442472      -1.40339037       0.24315889       2.35814977
C       16.31948583       2.38887731       0.10201063       0.67640608      -0.24494884       0.03831484      -2.99268694       0.32428299      -1.55672895
H       15.48497302       2.31516929      -0.71081221      -0.14758332      -0.16528369      -0.07924261       1.70119996      -0.12527040       0.99566043
F       16.90623810       0.45445013       1.91986330       0.59796530       1.23660675       0.89705907       0.59934820      -0.92457750       0.24758081
Cl      14.44712481       3.93033331       1.35382292       3.28315810      -0.00922317      -0.30599238       0.23218667       0.05226632      -0.14885832
H       16.25532184       2.54135941       2.27505890       0.11020327       0.13595772      -0.04537507      -0.25072648       0.16635215      -0.68910383
H       14.93578751       1.60330701       1.64871500      -0.02090085       0.05813000       0.26467247       0.56839035       0.30041216      -0.60969161
H       16.90692837       1.49565316       0.23482244       0.02728771      -0.11858593      -0.40724848       0.64479392      -0.28666777      -0.23107739
H       16.78268118       3.34931264      -0.02144390      -0.10298024       0.23867418       0.11289596       0.90088468       0.25004317      -0.36593091
9
Properties=species:S:1:pos:R:3:momenta:R:3:forces:R:3 R1=H R2=H R3=CH3 R4=CH3 leaving_group=Cl nucleophile=Cl rxn=sn2 config=rcc label=H_H_CH3_CH3_Cl_Cl_sn2_rcc conformation=0 reactant_id=H_H_CH3_CH3_Cl_none_-_r product_id=H_H_CH3_CH3_none_Cl_sn2_pc mp2_author_energy=-29302.391748605172 mp2_my_energy=0 hash=59123 address=T id=71 energy=-17370.279259846408 pbc="F F F"
C       17.09291798       2.82861267       1.55068017       0.51078568       1.12803532       0.44780475       0.99764518      -2.20079759       0.44903417
C       16.93799980       1.76154734       0.42162463       0.10108165      -1.28728715      -0.32733337       1.47111858       2.56272773       0.76580316
H       15.92677742       1.50078286       0.32719165       0.27310709       0.25158882       0.06232589      -1.50154520      -0.64197885      -0.19778373
F       18.37711308       0.94830470       2.54505663       1.30264875       0.07005437       0.54122607      -0.58666102       1.12478717      -0.37349034
Cl      16.04553309       4.33030472       1.08596773       2.22757794       0.62504258      -0.21731695       0.27696116      -0.53451631       0.09974325
H       18.12959061       3.17007800       1.62823236      -0.17011325      -0.01925622      -0.13571022      -0.43751023      -0.03701239      -0.08042698
H       16.81785023       2.39897240       2.52445300       0.01543591       0.24026482      -0.03847865      -0.11357325       0.47787283      -0.54689726
H       17.59361992       1.00344538       0.85252727       0.19555264      -0.15152857      -0.13918095      -0.00503336      -0.38939636      -0.13348454
H       17.30709543       2.21676136      -0.50848888      -0.03172094      -0.10029841       0.17251199      -0.10140186      -0.36168624       0.01750227
9
Properties=species:S:1:pos:R:3:momenta:R:3:forces:R:3 R1=H R2=H R3=CH3 R4=CH3 leaving_group=Cl nucleophile=Cl rxn=sn2 config=rcc label=H_H_CH3_CH3_Cl_Cl_sn2_rcc conformation=0 reactant_id=H_H_CH3_CH3_Cl_none_-_r product_id=H_H_CH3_CH3_none_Cl_sn2_pc mp2_author_energy=-29302.391748605172 mp2_my_energy=0 hash=59123 address=T id=71 energy=-17370.295927283252 pbc="F F F"
C       18.26245979       3.00114103       1.64598977       0.85957347      -0.43650074       0.42675304      -0.63372234       0.01924363      -2.01492148
C       17.41560007       1.75856408       1.21528853       1.14769081      -0.41288159       0.84924816      -0.16584475       2.42963138       0.95958396
H       16.39213720       1.90532981       1.64755331      -0.14220807      -0.04862921       0.12073993       0.69778201      -0.46930829      -0.58646606
F       19.61557706       1.43041907       2.90003725       0.43251120       0.32789773      -0.29700599       0.61238338      -0.81005487       0.63259415
Cl      17.47623277       4.47492020       0.74894679       1.49999946       1.09868344      -0.97306650      -0.05949022      -0.24363646       0.42155726
H       19.26821201       2.97158724       1.25643451      -0.17894740       0.01734643       0.10006300      -0.02165196      -0.19221050      -0.09774721
H       18.37642521       3.16576975       2.70006436      -0.02102659      -0.04335277      -0.02337377      -0.54517449       0.04859165       0.24578770
H       17.97021509       0.97551246       1.66750251      -0.20335647       0.00683322       0.17742550       0.38470559      -0.90947063       0.67618327
H       17.41285276       1.65502890       0.13675067      -0.03704407       0.06472191      -0.10317820      -0.26898721       0.12721409      -0.23657160
9
Properties=species:S:1:pos:R:3:momenta:R:3:forces:R:3 R1=H R2=H R3=CH3 R4=CH3 leaving_group=Cl nucleophile=Cl rxn=sn2 config=rcc label=H_H_CH3_CH3_Cl_Cl_sn2_rcc conformation=0 reactant_id=H_H_CH3_CH3_Cl_none_-_r product_id=H_H_CH3_CH3_none_Cl_sn2_pc mp2_author_energy=-29302.391748605172 mp2_my_energy=0 hash=59123 address=T id=71 energy=-17370.21549158929 pbc="F F F"
C       19.13879237       3.18745464       1.69562384       0.94691675       0.14794673       0.02224496      -0.66885611      -0.71247782      -0.30992787
C       17.99269722       2.27339410       1.94694178       0.49448121       0.18728319       0.20623681       0.09780143      -1.65688201      -0.91719140
H       17.14714250       2.82982978       2.21103612      -0.03250471       0.03354901       0.23165259      -1.50102967       0.80509512       0.84070318
F       20.48889338       1.67205467       3.06182100       0.40621866       0.44407234       0.02708425       0.04125830      -0.13923274       0.21716831
Cl      18.48754695       4.41000123       0.50274715       1.54455259       0.27403619      -0.58408166      -0.24033307       0.74540979      -0.41093174
H       19.93665767       2.68086084       1.26090961      -0.15198760      -0.05961779       0.04016310       1.27906882      -0.59309394      -0.60810227
H       19.46819447       3.65303101       2.56367265       0.03298688      -0.11564984       0.08336474       0.61379936       1.00392141       1.32949418
H       18.21956275       1.47115185       2.66530958      -0.11252128      -0.07602949      -0.02984808       0.43369403       0.72094364      -0.12100454
H       17.73020412       1.79846063       0.99604834      -0.00979846      -0.30231774       0.26103819      -0.05540310      -0.17368345      -0.02020786
9
Properties=species:S:1:pos:R:3:momenta:R:3:forces:R:3 R1=H R2=H R3=CH3 R4=CH3 leaving_group=Cl nucleophile=Cl rxn=sn2 config=rcc label=H_H_CH3_CH3_Cl_Cl_sn2_rcc conformation=0 reactant_id=H_H_CH3_CH3_Cl_none_-_r product_id=H_H_CH3_CH3_none_Cl_sn2_pc mp2_author_energy=-29302.391748605172 mp2_my_energy=0 hash=59123 address=T id=71 energy=-17370.189321664355 pbc="F F F"
C       20.26509891       3.19824204       1.67318833       0.83794359      -0.05477896      -0.44064905      -1.68448133       0.99054388      -0.64851572
C       19.05432425       3.14218001       2.57607698       0.78755719       0.85362453      -0.05979860      -0.94630366       0.57024940      -0.12089653
H       18.76904710       4.16488479       2.98328524       0.02148607      -0.12379825       0.14203180       0.10567544      -1.06436438      -1.01351063
F       21.42959931       1.93988674       3.40724566       1.01193478       0.24270475       0.31166506       0.09350919      -0.19670222       0.17084874
Cl      19.61402365       4.31624885       0.26663354       1.84171319      -0.77617813       0.43589496      -0.06520543      -0.10074284      -0.26935821
H       20.52322424       2.29812689       1.17868668      -0.08668455      -0.04630808      -0.21154457       0.15960708      -0.81551628      -0.07702600
H       21.11018778       3.74198704       1.96322818      -0.11867442       0.22479823       0.04838994       0.90895206       0.32002459       0.98484749